LAMMPS data file via write_data, version 2 Aug 2023, timestep = 40000, units = real

4512 atoms
3 atom types

0.5601717076025288 19.631644055889193 xlo xhi
0 8.088404 ylo yhi
0 259.216927 zlo zhi
0 0 0 xy xz yz

Masses

1 12.0107
2 18.998404
3 1.00794

Atoms # charge

14 1 -0.1574583379757374 2.2801928184609923 1.90728031476594 1.4282608728916573 0 0 0
15 3 0.1457619395995943 2.7579940330178694 1.0164759699528398 1.518468746518695 0 0 0
16 3 0.186551816174377 3.0595662682210234 2.635087580536867 1.4368548684164997 0 0 0
17 1 0.03977464958570311 1.4602882290622672 2.176493658745793 2.7253645397796173 0 0 0
18 2 -0.2051658039164491 0.6720800882616287 3.3421882886297696 2.5488257313351363 0 0 0
19 2 -0.2145977630579708 0.6181569830455886 1.1092637328437884 2.823912583911769 0 0 0
20 1 -0.1283087637194756 2.0937817768792564 2.287142147821539 4.139404115579498 0 0 0
21 3 0.1660400543988037 2.791470732219791 1.4359423458819496 4.128669921843671 0 0 0
22 3 0.1935077120842243 2.71423427213744 3.183254900671547 4.205809236692201 0 0 0
23 1 0.05624285703412827 1.4066481751952675 2.2968907723471377 5.492584420421526 0 0 0
24 2 -0.2102849085097512 0.5707275902562401 3.398478676796437 5.628259995460793 0 0 0
25 2 -0.2144658498571049 0.5651607197949828 1.212263511533065 5.547068301798941 0 0 0
26 1 -0.01792321625105553 2.2901026746552007 2.1207032122528804 6.9144691381939865 0 0 0
27 2 -0.1730868890292166 3.030880198972153 0.9413294999672365 6.870088470527197 0 0 0
28 3 0.1908332651134745 2.9451751383159817 2.9067393497244502 7.007415257128362 0 0 0
578 1 -0.1923686204611936 3.603604947594893 6.596363997716578 0.659082193983407 0 0 0
579 3 0.1708863266038865 4.634836563491915 6.389741817223632 0.6347568038222989 0 0 0
580 3 0.1396511275793436 3.563498153168972 7.654586274836868 0.6339146876467834 0 0 0
581 1 0.09202225359884686 3.11831752477113 6.070659530932694 2.1265635585724407 0 0 0
582 2 -0.178770310262644 1.7492819690628094 6.177080130762845 2.1681576981295154 0 0 0
583 2 -0.1602410335032962 3.3800036569411747 4.728649227763072 2.1417601892429903 0 0 0
584 1 -0.1765390010645933 3.6796531304891777 6.571205168970277 3.4655648253942375 0 0 0
585 3 0.1911905565108328 4.608825394614497 6.125916441660638 3.6175274608247947 0 0 0
586 3 0.1534240176808333 3.7943140119000907 7.62594902604459 3.3368675741790566 0 0 0
587 1 0.09910049740694693 2.8839868047801156 6.463995565674926 4.8058058071385705 0 0 0
588 2 -0.1816155492063567 1.8769175654577053 7.3977760368418375 4.73506565501885 0 0 0
589 2 -0.1670776320846752 2.2757312646855805 5.242937185608136 4.789176364170576 0 0 0
590 1 -0.03208380263761513 3.704307347932443 6.59522766226598 6.1882249666021725 0 0 0
591 2 -0.1528182930500722 4.869041820475164 5.728189779216482 6.156758999332841 0 0 0
592 3 0.1820064019088663 4.080499921437723 7.597495965154136 6.226381721796748 0 0 0
1142 1 -0.1643509522354941 7.048005519308854 1.7544059612890945 1.2053818801962728 0 0 0
1143 3 0.175376265357831 7.511510027222009 0.774480820631926 1.2613347219161213 0 0 0
1144 3 0.1861846799521239 7.899740576985265 2.4829337152637465 1.209093251013223 0 0 0
1145 1 0.06652288234657469 6.2923380212559215 1.9193247456257658 2.5639043725313817 0 0 0
1146 2 -0.1597357932145675 5.675021899148772 3.1785516403160927 2.5273014663167155 0 0 0
1147 2 -0.1733653676719985 5.326780540782507 0.9598019239761714 2.5901994135332322 0 0 0
1148 1 -0.1523789662844515 7.142547214001855 1.8509432702677209 3.9322758517527876 0 0 0
1149 3 0.1929666360078947 7.719220508819927 0.9746815220032288 3.8950311344059374 0 0 0
1150 3 0.2007203460200646 7.818908980531508 2.657482218497898 3.9382970046551637 0 0 0
1151 1 0.09232770439955711 6.236070736777025 1.833847714999717 5.141098191925988 0 0 0
1152 2 -0.1570265096085481 5.345954376722702 2.905185977272447 5.0736976480308735 0 0 0
1153 2 -0.1656745924101263 5.461607487978397 0.658004346961468 5.052178314309437 0 0 0
1154 1 -0.01890543842178469 6.90727117197624 1.8177002355996308 6.615499684963737 0 0 0
1155 2 -0.1468949766183692 8.014273608981394 0.906428536312394 6.646833893545911 0 0 0
1156 3 0.2041093336407182 7.402906996299732 2.722738496492504 6.615200165814714 0 0 0
1157 1 0.07506178649752522 6.100742951473836 1.8460732963154374 7.996612431032625 0 0 0
1706 1 -0.1668888749631849 9.21832446703654 5.651605103036292 1.0573012574082614 0 0 0
1709 1 0.09900502210128008 8.482583436546097 5.639674522303256 2.404064539829081 0 0 0
1710 2 -0.1544950082785262 7.435394324031941 6.672831639625531 2.379695056845707 0 0 0
1711 2 -0.1488915077956852 7.835198137443153 4.391396138726031 2.4594120349429667 0 0 0
1712 1 -0.1546755277021073 9.292969851288566 5.818532354619788 3.7591543765397875 0 0 0
1715 1 0.1327120005573622 8.459187077618514 5.903331931682457 5.0458634427976765 0 0 0
1716 2 -0.1476376877400217 7.585079450600678 7.001228113670413 4.962195476642746 0 0 0
1717 2 -0.141673162045455 7.680385564242121 4.750461909258483 5.008821558787561 0 0 0
1718 1 -0.008996594940906461 9.177427748138493 5.909818151886861 6.496068858075189 0 0 0
1720 3 0.2036416955207095 9.606021818656613 6.8661854991957485 6.603627694723255 0 0 0
1714 3 0.1922983025040529 9.903982760822267 6.684438742516612 3.6745642252110957 0 0 0
1713 3 0.2020429810679888 9.994978785128078 5.01157262883719 3.8274280118743143 0 0 0
1721 1 0.1179549789822257 8.315669559272425 5.9046529538715165 7.840853299253116 0 0 0
1707 3 0.189738642518941 9.761855120597904 4.742908214250294 0.9528166741122307 0 0 0
593 1 0.1118100972632067 2.84572717313232 6.252103526145775 7.491225841999639 0 0 0
595 2 -0.1649575529665762 2.6880505845853424 4.881298168834095 7.571582887549647 0 0 0
594 2 -0.1824197128651411 1.564147716048546 6.762915875990714 7.393965146305806 0 0 0
2280 2 -0.1383213420966579 9.915855020569317 2.6646952112461713 5.117226361974978 0 0 0
1708 3 0.1839442948912084 9.960463488829335 6.418642889827699 1.0737063443270154 0 0 0
1722 2 -0.1497797884766133 7.281554985085572 6.873921771214362 7.693020267435795 0 0 0
1723 2 -0.1445661422107094 7.619775629787876 4.711638224725463 7.918369290325864 0 0 0
2286 2 -0.1384073549576494 10.057210964141504 3.0800570029930046 8.052406146327776 0 0 0
1159 2 -0.1689750285536816 5.306028026121093 0.6508867326306632 7.975540731334412 0 0 0
1158 2 -0.1620137628332311 5.243406563514586 2.9365468547981592 7.9500397346022575 0 0 0
11 1 0.05087049326418596 1.3928664841562166 1.8552270740435768 0.1304459696922607 0 0 0
13 2 -0.2169322466859013 0.5985377197721983 0.7230444461323772 0.2082294156442425 0 0 0
12 2 -0.2046599163557498 0.5966619848261913 3.0642257952069163 0.0767599636559672 0 0 0
2287 2 -0.1425290221678451 10.043681900182058 0.8748217487738154 7.950782738137575 0 0 0
1140 2 -0.1593018855297696 5.446536220077925 3.021691276610841 0.05669243822033429 0 0 0
2305 2 -0.1416684939932612 9.634956170833068 1.185257140706032 16.06533131266662 0 0 0
31 2 -0.2136516193037204 0.5635797729828732 0.9985456614990991 8.239648526009404 0 0 0
2299 2 -0.1391876225833269 9.862162622357854 1.2135522086697972 13.286168011309824 0 0 0
30 2 -0.2089511424228458 0.6221820492150328 3.2945135193163213 8.241055799415914 0 0 0
1176 2 -0.164345696094151 5.3778534682619545 3.483586860761138 16.14693542862336 0 0 0
29 1 0.05241549501001887 1.4178497828698167 2.1234145012888206 8.208149203824068 0 0 0
613 2 -0.1733019854019462 1.9626908782436627 5.845836219273548 15.77403341269403 0 0 0
45 3 0.1896580299657697 2.974285548403034 1.4352112502414438 14.841465094722341 0 0 0
597 3 0.1788051178597945 4.370223156861232 6.38422333598756 8.748072687239778 0 0 0
46 2 -0.1670351006258765 3.246136765918255 3.4272559341858395 14.86927205885633 0 0 0
596 1 -0.1671502212997439 3.387332657292763 6.661849516781449 8.898242584653694 0 0 0
1740 2 -0.1552163968082917 7.340189668340215 7.122878338449516 16.06686051589643 0 0 0
599 1 0.08356516773059131 2.8107989155833053 6.204299924446758 10.29960643193078 0 0 0
1725 3 0.1998104769630789 9.864706336423643 5.413406967158054 9.179989640974975 0 0 0
612 2 -0.1705244521954368 2.898531140386879 7.860986606269502 15.757886825940203 0 0 0
598 3 0.1632499101511479 3.332437535572459 7.763946784238609 8.955087382581555 0 0 0
601 2 -0.1695535781859058 2.5533438812021187 4.906968564490188 10.186433730862289 0 0 0
602 1 -0.176995466409169 3.6498929051860634 6.362595091000557 11.601563481885414 0 0 0
604 3 0.1681256197392876 4.191856360496132 7.220313733770802 11.499951335762814 0 0 0
605 1 0.1041220106121782 2.924406537745515 6.453221870891132 12.985877208061106 0 0 0
608 1 -0.03931974969649793 3.81485786034741 6.168275308779715 14.268059440336362 0 0 0
611 1 0.1120696605806732 3.1966478210165112 6.494325836421105 15.69453963717067 0 0 0
1726 3 0.1876434487077135 9.528056988808721 7.062055101699351 9.088031284153825 0 0 0
607 2 -0.1744264018690398 1.9456913674317935 5.457114273713716 12.992186652331586 0 0 0
609 3 0.1930426670100113 4.0824639971858705 5.165096738622263 14.348327388600712 0 0 0
610 2 -0.1616061913895376 5.190109571707759 6.703489842179149 14.181826538789498 0 0 0
1161 3 0.1864512143342345 7.369988464951881 1.0213657570968986 9.36440615731852 0 0 0
603 3 0.1763768323539021 4.3442470853410144 5.555432394998462 11.530065517725347 0 0 0
1164 2 -0.1676210686635208 5.089227334255984 3.1377145740800256 10.545585453904613 0 0 0
1162 3 0.1907797031869659 7.585746751467037 2.68715888235112 9.316674596887212 0 0 0
606 2 -0.1759077245440635 2.280499207537221 7.656572096771978 13.073715037797447 0 0 0
44 1 0.002164262348112954 2.2966547932751755 2.2734190216330536 14.893696362227741 0 0 0
600 2 -0.1835465087495778 1.5741498345468417 6.8395391384841675 10.482836375432337 0 0 0
1166 1 -0.162830248775837 6.653516397233403 1.9951007280682713 11.980034217923391 0 0 0
1160 1 -0.1624855781845478 6.823401016041621 1.9054997567762597 9.33605962116368 0 0 0
1167 3 0.1843210081408123 7.203361982803952 1.1286013580869707 12.130355842590808 0 0 0
1163 1 0.05237565672066664 5.881805287380089 2.0067343842221863 10.62459767438925 0 0 0
1731 3 0.1974081629060143 9.667880204613477 5.156548896902482 11.905880871146069 0 0 0
1737 3 0.2124250696487452 9.612497868920236 5.157246860493157 14.596827888444166 0 0 0
1169 1 0.08133353226154945 5.831411328226115 2.140960436158146 13.323249936826633 0 0 0
1165 2 -0.1745902767027577 5.073624800807564 0.8525454747634003 10.614784587915011 0 0 0
1175 1 0.08544430986674688 5.913873425549688 2.214904226620933 16.09097469891182 0 0 0
1168 3 0.195915357349172 7.391674168723967 2.7823120159333983 11.955832324450988 0 0 0
1729 2 -0.1516010117850579 7.42336275240048 4.9703413606753255 10.601181978630732 0 0 0
1174 2 -0.1425586580831158 7.879811692651631 2.87872518805818 14.619145906342093 0 0 0
1728 2 -0.1576183071686192 7.507323407161598 7.226557753125258 10.628268615454775 0 0 0
1738 2 -0.139300046644947 10.059946757877745 7.140519343464642 14.743184564824297 0 0 0
1170 2 -0.1630917365347568 5.155112735004969 3.3517818691952064 13.295759164400588 0 0 0
1727 1 0.08086619651854468 8.290907637917602 6.110888003056283 10.5965248828678 0 0 0
1730 1 -0.1583444547332377 9.075362363448312 6.061250112004107 11.971048405112551 0 0 0
1173 3 0.1913000730134021 7.04229854931241 1.0265576772180185 14.684270245385308 0 0 0
1171 2 -0.1699575554606934 4.877729486401077 1.1581478300232118 13.318419236196963 0 0 0
1724 1 -0.1605624286036489 9.059971477263352 6.1180930068942 9.157841934250264 0 0 0
1177 2 -0.1705509423217825 4.856563626997976 1.3748900526792054 16.11987125891504 0 0 0
2293 2 -0.1474655127493047 9.939122779295078 0.8814873731474446 10.727823441409402 0 0 0
1734 2 -0.1526733365279874 7.557297147575091 7.356393794927559 13.282049170131325 0 0 0
1736 1 -0.0167036042932869 9.095738515121958 6.067163214901741 14.694359196542317 0 0 0
1172 1 -0.01399018284516237 6.626397645975886 2.039467351934445 14.676449463865612 0 0 0
1733 1 0.1193566929534391 8.300884023398446 6.153928769175995 13.268006328093044 0 0 0
1735 2 -0.1468548897048723 7.398519396567798 5.111806857676217 13.281264455970257 0 0 0
32 1 -0.1348555436891337 2.18969861749885 2.2002241978352237 9.528228282532433 0 0 0
33 3 0.1589927620554581 2.820626832597153 1.308291891731963 9.604940204761634 0 0 0
34 3 0.1851375144923567 2.839758989023248 2.9869160673240702 9.406409528872091 0 0 0
35 1 0.04939515904739602 1.4446468441212663 2.313530725943768 10.936381249742464 0 0 0
36 2 -0.2085945379322917 0.6452027555689301 3.4929337736651442 10.911381684536309 0 0 0
37 2 -0.2134926185724105 0.5874595591331694 1.2656453269750567 10.943423434203105 0 0 0
38 1 -0.1275064119874688 2.2263371270108143 2.2649952828874813 12.278307727986627 0 0 0
39 3 0.1761384937049466 2.74588873746493 1.345535556088242 12.291847335059103 0 0 0
40 3 0.1896364725607965 2.8601716242800608 3.070559286722368 12.375156791341455 0 0 0
41 1 0.05651330504012067 1.4276662060355048 2.2467194007954068 13.631782469592801 0 0 0
42 2 -0.2097942378521763 0.5924780426836621 3.3656539376548165 13.562534377649708 0 0 0
43 2 -0.2145510159825883 0.5712100930947455 1.1042121827445601 13.684360719152759 0 0 0
1739 1 0.1204396451588599 8.29522283300777 6.059595534854907 16.04860942568552 0 0 0
1732 3 0.1963613074882355 9.706789481714283 6.928670618688493 11.972572866168306 0 0 0
50 1 -0.1212573088822628 2.274899180981424 2.2818267481809964 17.633290719919636 0 0 0
51 3 0.1824650328587741 2.9672178900734547 1.4170802221264958 17.573029901025183 0 0 0
52 3 0.1863167939990192 2.7812158566896983 3.1743976736298 17.500018137801355 0 0 0
53 1 0.03831874552891023 1.441667578404386 2.2683178265517197 18.98027707133041 0 0 0
54 2 -0.216622960253756 0.5840145198883524 3.330258034938154 19.00973356982105 0 0 0
55 2 -0.2116641582387817 0.652377858764826 1.1665970249370348 18.9054288837006 0 0 0
56 1 -0.1239275279325434 2.2031237056097632 2.261591731147062 20.363728865577226 0 0 0
57 3 0.1907476514792725 2.8740622562997586 1.4974719110298496 20.23565065148595 0 0 0
58 3 0.1841241134797308 2.661743960695998 3.2389085967174207 20.511997287966388 0 0 0
59 1 0.05043850012837222 1.451977699408146 2.1172577444739047 21.704199070556633 0 0 0
60 2 -0.2136805007879637 0.6602027924907378 3.2106689765555787 21.781565195499464 0 0 0
61 2 -0.2105781312128908 0.5932412323922835 0.9814442081244258 21.711221341841444 0 0 0
62 1 0.01019236081147716 2.2700677490814667 2.072695777751277 23.096148642039132 0 0 0
63 2 -0.1609443662079665 3.1190367214615815 0.8682421405186379 23.11937421015487 0 0 0
64 3 0.1868776215532054 3.0449284462747572 2.7764745173021566 23.03384210614811 0 0 0
614 1 -0.1708972552625397 4.00301474985227 6.1499049612823296 16.980995093671094 0 0 0
615 3 0.1793070219254248 4.488279137092147 5.2126828098990075 16.861974334071483 0 0 0
616 3 0.173182566693807 4.758916820600151 6.879634204253557 17.110799070596112 0 0 0
617 1 0.08049939444045678 3.2644621203280177 6.100298594078438 18.38811351547844 0 0 0
618 2 -0.1714194042924042 2.3574052164931993 7.127403087119114 18.423019407884563 0 0 0
619 2 -0.1721669346798444 2.4963412306889823 4.957652462168523 18.421788378233728 0 0 0
620 1 -0.1677953576119098 4.036910729709506 6.226178643900941 19.701842180625587 0 0 0
621 3 0.1748945671915559 4.7460068727096205 5.415543588617033 19.738435963616286 0 0 0
622 3 0.1721512050966873 4.7270827247232035 7.083225028851067 19.536449701646685 0 0 0
623 1 0.1156561238592835 3.2663756975867813 6.324429819590035 21.043117087807314 0 0 0
624 2 -0.1675144019638253 2.530004246645216 7.455710513149725 21.015401294310895 0 0 0
625 2 -0.1725026434951551 2.3530307224695277 5.252882037553141 21.129520858794688 0 0 0
626 1 -0.03232825102320739 4.105267284389782 6.359106560653526 22.392079806418344 0 0 0
627 2 -0.1595934715579532 5.3786137472364635 5.585377542905054 22.259782070608072 0 0 0
628 3 0.199025983763209 4.60031339119478 7.303281951252146 22.605897969559294 0 0 0
1178 1 -0.1647990159843271 6.72515570738292 1.936017535626858 17.390780673016312 0 0 0
1179 3 0.179001317483619 7.178499077021832 0.9742308587693039 17.316138922450673 0 0 0
1180 3 0.1953160210043954 7.494176300668498 2.6465305676076616 17.430488997640424 0 0 0
1181 1 0.04924164610114098 6.006389720446368 2.0183289596131346 18.791897906376718 0 0 0
1182 2 -0.1694060118673444 5.164239981118983 3.1346762739821763 18.79716465252828 0 0 0
1183 2 -0.1711844485678225 5.184573611726385 0.9186394415488712 18.85460963543978 0 0 0
1184 1 -0.162650361891114 6.814536930926055 2.107835466769377 20.167629497009493 0 0 0
1185 3 0.1908840730833311 7.617497823750755 1.4315547456123892 20.144215409581076 0 0 0
1186 3 0.1874505880278492 7.284199022122465 3.0283233148390054 20.178049554720214 0 0 0
1187 1 0.08842971186778727 6.120841560858996 1.8329494899163863 21.553723377163635 0 0 0
1188 2 -0.1640651082468908 5.01662161771725 2.680609251722663 21.71259065685325 0 0 0
1189 2 -0.1619633395751216 5.577751905301906 0.5632292739214345 21.44050710920716 0 0 0
1190 1 -0.009312641449014402 7.003212234464679 1.863941381147773 22.862507941478476 0 0 0
1191 2 -0.1443196839930768 8.180771593313173 0.9954325422008606 22.752154801424826 0 0 0
1192 3 0.1991674245659296 7.503483552788206 2.8470996703403526 22.752564781045955 0 0 0
1742 1 -0.1609523447404522 9.074581189267006 6.202968713915438 17.406096110951992 0 0 0
48 2 -0.2114487190514907 0.6166904593007877 3.3719447959920537 16.307399157896306 0 0 0
1745 1 0.07604205809011384 8.249912172720599 6.115323457200137 18.740088458484475 0 0 0
1746 2 -0.1609627816097739 7.405558470704351 7.19734213705893 18.813023456458883 0 0 0
1747 2 -0.1573560854109664 7.444730225602663 4.96856753166798 18.668231740830368 0 0 0
1748 1 -0.1626861672708239 9.127434353595346 6.133403961233285 20.070647373199755 0 0 0
1750 3 0.1913675087544958 9.675724787111903 7.0249099279142495 20.10586142193043 0 0 0
1751 1 0.1248483433185997 8.480096744840884 5.938769245557839 21.45961111356983 0 0 0
1752 2 -0.1502526849488817 7.479742010550352 6.942092748237024 21.53034643894057 0 0 0
1753 2 -0.1500355315980003 7.773512662689452 4.732958779448516 21.354886759016868 0 0 0
1754 1 -0.006872696200764895 9.21132817180482 5.838677470331747 22.851032103161653 0 0 0
1756 3 0.2087992816277427 9.764370140196974 6.755809651151198 22.97113011546348 0 0 0
1749 3 0.1947114095479551 9.83512630534594 5.412770558221787 19.90477932106928 0 0 0
1743 3 0.1927802295502437 9.88374740793947 5.490324808217061 17.462865391560474 0 0 0
49 2 -0.2106026553539653 0.6773277793563226 1.0912432040938815 16.28527610020759 0 0 0
631 2 -0.1701461185455971 3.068934809802075 4.5691556882945425 23.561521809551877 0 0 0
630 2 -0.1690556557278552 2.0647197290258967 6.603768264071144 23.622046863338788 0 0 0
629 1 0.1077935953723943 3.321908068518483 5.954486624055772 23.646845897592396 0 0 0
2310 2 -0.1429452468934631 10.076305581990946 3.121488354114366 18.879483400646407 0 0 0
66 2 -0.2156993299616017 0.6390871388834936 3.4377519006629087 24.274576965626576 0 0 0
1744 3 0.1878304398010091 9.54110683161102 7.154418119671527 17.435881758667595 0 0 0
1195 2 -0.1615963086797241 5.468536482145486 0.6786653535654087 24.264436063145684 0 0 0
1757 1 0.1084139688880489 8.345880162941755 5.718400828721551 24.22137607794344 0 0 0
47 1 0.05376037343214098 1.4703911594770216 2.23802573563586 16.319863073096784 0 0 0
1759 2 -0.1517195856860953 7.73875664157489 4.446191437863068 24.186909817841414 0 0 0
2316 2 -0.1388422412723198 9.731628254913948 2.4055850749811634 21.49801112363782 0 0 0
2311 2 -0.1494322093413109 9.778059982749895 0.9260142298840602 18.880215215669814 0 0 0
1758 2 -0.1508822524259409 7.300842562959396 6.651164901997219 24.169524166132746 0 0 0
1741 2 -0.1494413318238719 7.565080391082265 4.86793935518752 16.202901203833207 0 0 0
1193 1 0.09128939549062225 6.308967615414956 1.795124835009039 24.323545485680114 0 0 0
1194 2 -0.1665803901161376 5.467561058067026 2.901024303430248 24.379818469721585 0 0 0
1771 2 -0.1509366444674418 7.15781555822275 4.773159137707302 29.713265307416187 0 0 0
65 1 0.05203415548677211 1.474926156026331 2.3372208323616483 24.44716233875154 0 0 0
67 2 -0.2080937022732712 0.6144985815407862 1.2689033569630228 24.602733354931278 0 0 0
1774 2 -0.1325597054250863 9.988925157778732 6.6103613854821335 31.11867366303195 0 0 0
70 3 0.1596121263820609 2.5714469591916105 3.568099616437406 25.90158826844527 0 0 0
1767 3 0.1843081069214681 9.361325302502674 4.9072371947882845 28.3808878197015 0 0 0
69 3 0.1863551642006127 3.0400322941493787 1.971777884382036 25.79787145631078 0 0 0
73 2 -0.2089086557960352 0.6064266973575517 1.275598743201256 27.201150711363148 0 0 0
74 1 -0.1393260804371214 2.1796797300328388 2.3625431075441936 28.56255864676369 0 0 0
71 1 0.02851055552745031 1.3741531606144317 2.3747074994237267 27.227742745097643 0 0 0
79 2 -0.2059875535590723 0.6189991085556908 1.029233452354231 29.891999252578096 0 0 0
80 1 -0.03079550833254812 2.271300228181125 2.1018705993598514 31.33137067485968 0 0 0
81 3 0.1991904846818489 3.0070580368244704 1.345450506404731 31.2865237490587 0 0 0
77 1 0.05437616431462436 1.4555534602083198 2.1654384593003364 30.003403193187083 0 0 0
76 3 0.1562341038576004 2.7689957791220268 3.2197414740295414 28.590323183254853 0 0 0
82 2 -0.1710508503003119 3.2451762992698354 3.2145197125459055 31.3941887468792 0 0 0
632 1 -0.1641051728112011 3.887209731177185 6.143674700925406 25.083457273512018 0 0 0
1772 1 -0.01457706950547526 8.858688672824702 5.717512775927859 31.10342837137047 0 0 0
68 1 -0.1348884502507195 2.171250810831811 2.574119268130404 25.81321790155577 0 0 0
649 2 -0.1942475459835035 1.1056531176454318 5.935098229161455 31.52590727532636 0 0 0
72 2 -0.2185505033639048 0.5833275361741448 3.485353789572985 27.254926295526232 0 0 0
634 3 0.1865583428398285 4.663879209835099 6.967442510994578 24.949278089436646 0 0 0
75 3 0.1982549749546692 2.735973524001328 1.4712071298381164 28.52666499518137 0 0 0
637 2 -0.1805354035654128 1.7839319336905763 5.923999438701854 26.209656757888332 0 0 0
636 2 -0.163274779262281 2.9069478107528965 7.791464461528572 26.50429175516387 0 0 0
78 2 -0.2156979968282435 0.5807837510568755 3.247109043012926 30.054014030739175 0 0 0
638 1 -0.1854457933020075 3.6353748901411995 5.95422981251865 27.74159878921834 0 0 0
639 3 0.147502635101859 3.7097670410056933 4.9041072169881685 27.729671093894837 0 0 0
640 3 0.1892805057542525 4.615536591269851 6.341728757910807 27.940309228028923 0 0 0
633 3 0.1642059432425962 4.46361346714715 5.25410969170889 25.30297892317726 0 0 0
642 2 -0.1633560943384623 2.764582195787269 7.700080259139679 29.10059032590031 0 0 0
643 2 -0.1888499469017184 1.4635976197518645 5.896694439001854 28.84528094174704 0 0 0
644 1 -0.03464132696276317 3.2848260480260203 5.742329108893712 30.42000192502229 0 0 0
645 3 0.1675827731047749 3.080213283246107 4.6865346117206474 30.3392013987795 0 0 0
646 2 -0.1537985996617356 4.7801500489274105 5.961408796715172 30.654580898539475 0 0 0
1196 1 -0.1633666374079804 7.1005985680383725 1.7151914236888492 25.647565937781494 0 0 0
635 1 0.09851069430102327 3.0784666777799456 6.447485287967113 26.374630668796314 0 0 0
1198 3 0.184153836205216 7.816440864243613 2.474013942489546 25.65372189986299 0 0 0
1200 2 -0.1707716900096363 5.388476111911901 2.74809560817013 26.982278863045536 0 0 0
1199 1 0.07252452648606603 6.239177866504094 1.6556414344912482 27.004590616985283 0 0 0
641 1 0.100970829681583 2.824565643903962 6.3149547900115905 29.004119975104125 0 0 0
1197 3 0.1933100163399848 7.66615341622806 0.8180592690940873 25.598710082647177 0 0 0
1201 2 -0.1649120346265994 5.432773125872571 0.5320661516345122 26.96180852183984 0 0 0
1202 1 -0.158920466293301 6.949751304290016 1.6427078442445708 28.39429594203384 0 0 0
1203 3 0.1900374974638979 7.63355589291253 0.8333140895361565 28.416579788775525 0 0 0
1768 3 0.198498442674566 9.591057195613178 6.577302366494283 28.40586110236875 0 0 0
1773 3 0.2018027016223116 9.263785743924005 4.698605853986014 31.129122567805002 0 0 0
648 2 -0.1645578429769717 2.612642748991913 7.545972918593634 31.875704789453856 0 0 0
1204 3 0.1843332828525694 7.633580671505038 2.4952601094462836 28.483170412951978 0 0 0
1207 2 -0.1578408427628456 5.252149009791461 0.4880284840666492 29.53976206807211 0 0 0
1208 1 -0.02407670192274562 6.854845186956985 1.574541665824405 31.112356124897605 0 0 0
1206 2 -0.1634485082270102 5.263477201818699 2.7428451955647626 29.577136678143784 0 0 0
1760 1 -0.1642885156604602 8.963123745212297 5.8491562663498815 25.620306759542803 0 0 0
1763 1 0.06770220140408448 8.112751831073025 6.017879541462534 26.97933540689312 0 0 0
1209 3 0.2028284328920674 7.3446864436124555 0.6186732704629746 31.156336906826866 0 0 0
1764 2 -0.1555184737843348 7.589416414372037 7.31699631152156 26.94853793969611 0 0 0
1762 3 0.1929069503813675 9.545440383243367 6.731143133298135 25.56641570927951 0 0 0
1761 3 0.1927314514145386 9.60574457376923 4.995708967364141 25.76705071390078 0 0 0
1765 2 -0.1594367600788541 7.00681786017634 5.186315197523504 26.923121702903735 0 0 0
1766 1 -0.1595058556061074 8.795300636142336 5.809521109808073 28.40600885020349 0 0 0
1769 1 0.1175357746440755 8.047540945447528 5.818530171611912 29.75445559354512 0 0 0
1770 2 -0.1473087558480525 7.294660137069288 6.978052561555971 29.75407389058923 0 0 0
647 1 0.1149277386550114 2.518517727050829 6.1880789271155825 31.705934200447413 0 0 0
1210 2 -0.1462283002019922 7.935245999290742 2.5456983383588474 31.06322806753538 0 0 0
1205 1 0.1075030335468639 6.051269448451329 1.5943590753236967 29.639910563450723 0 0 0
2322 2 -0.1394473754244986 10.05931825261798 2.680415237021011 24.366168065001023 0 0 0
86 1 -0.1370538646341744 2.2285275895462573 1.8444767376720905 34.018531099792426 0 0 0
87 3 0.1888387956440532 2.722145269836674 0.8591644022135388 33.926997667763814 0 0 0
88 3 0.1534806221675773 3.009934536913298 2.645842211508581 33.90616567062813 0 0 0
89 1 0.01400347274631121 1.50412210402618 1.9823093457815542 35.422861404296626 0 0 0
90 2 -0.2140485208578465 0.6095207538104611 3.008068973853255 35.30691447534744 0 0 0
91 2 -0.205862742683941 0.6930659172573208 0.8605382067452013 35.44286741186093 0 0 0
92 1 -0.1611183915873671 2.266997348859661 2.147171097563171 36.80306681650268 0 0 0
93 3 0.1879202738394075 2.843404307703156 1.2497360343202768 36.89554357138301 0 0 0
94 3 0.1600057104115546 2.99467638300753 2.8723052503742412 36.619643311752284 0 0 0
95 1 0.01757471977534244 1.6023274980960416 2.43743428657579 38.126865424057186 0 0 0
96 2 -0.2135993477696452 0.5648989924653259 3.321450388129296 38.14078734030495 0 0 0
97 1 0.07547951937467091 2.2110349374741256 2.0008794679051127 39.21567982577723 0 0 0
98 2 -0.1548928779465811 3.3913349066766436 1.2162053446754555 39.186451512904696 0 0 0
99 1 0.0518261506876297 1.445928241426783 2.1851850420677468 40.50246241197007 0 0 0
100 2 -0.2137145148687122 0.5762362760063957 3.271298868120787 40.41432390781888 0 0 0
650 1 -0.1565496871233903 2.955971103591158 5.474729537818984 33.055078516504274 0 0 0
651 3 0.166120205707239 2.8713955267668645 4.3961702031196985 32.88187267446188 0 0 0
652 3 0.1829695489514519 4.006237779763674 5.676708787104735 33.20297007832187 0 0 0
653 1 0.07686694475609877 2.327362736418939 5.801748661987299 34.41303123287061 0 0 0
654 2 -0.1678624584241659 2.5206948228574033 7.1466966367949825 34.673461185394764 0 0 0
655 2 -0.1994865723968568 0.9785617946184111 5.623126256550762 34.2138009094657 0 0 0
656 1 -0.1910398717035457 2.8056823607418924 5.038144392657321 35.79483991286755 0 0 0
657 3 0.1569787743641416 2.5911169404709398 4.048119863380638 35.78493289537854 0 0 0
658 3 0.1720326102575853 3.8511263610969353 5.1141736594751395 35.86263972223635 0 0 0
659 1 0.05651832049008015 2.1601497259540228 5.558932645234811 37.018034580533715 0 0 0
660 2 -0.1984492037931468 0.9422440813134152 6.135476225405757 36.87372400597675 0 0 0
661 1 0.03230828325680627 2.6706280939330496 5.325040120502365 38.234205695318074 0 0 0
662 2 -0.1571384324125838 3.883495931536684 4.626201488891534 38.42433923285722 0 0 0
1214 1 -0.1642065903041268 6.949834088776739 1.5366263176102772 33.758870697421045 0 0 0
1215 3 0.185030018898933 7.604896396449258 0.7496963100537305 33.68772750601986 0 0 0
1216 3 0.1873675132660876 7.609356373546337 2.372830673272806 33.71190926495635 0 0 0
1217 1 0.06033515854720113 6.2341948821348545 1.549262894984669 35.12332378964817 0 0 0
1218 2 -0.165960451656968 5.3887353030793514 2.679248956093807 35.109440780222094 0 0 0
1219 2 -0.1598318036584477 5.420691434492369 0.46152518366770434 35.23279523386962 0 0 0
1220 1 -0.174939371152149 7.093591436469365 1.5527085256348439 36.526200154386174 0 0 0
1221 3 0.181408292020916 7.575301735874411 0.6388329544564693 36.59403126957142 0 0 0
1222 3 0.1886243720814453 7.879552453580357 2.22668377665595 36.391605771586754 0 0 0
1223 1 0.07451899887129158 6.352957823280988 1.8419156761006492 37.799882632859884 0 0 0
1224 2 -0.1559950664909903 5.317933391640889 2.7262852572414045 37.7262764826295 0 0 0
1225 1 0.0492339889710425 6.849686837039922 1.4375749769819481 38.96324648685047 0 0 0
1226 2 -0.1392841144549044 7.993056796246452 0.5821659535994463 39.05496042275206 0 0 0
1227 1 0.1062702141088659 6.107885403021186 1.6318827432544734 40.25960358826922 0 0 0
1228 2 -0.1568912800677275 5.3993576103248895 2.850174826255695 40.234171730673246 0 0 0
1778 1 -0.1642260501958215 8.80656021137855 5.581053033815089 33.82871138963457 0 0 0
1779 3 0.186233256318685 9.444690155155989 4.686168078524619 33.66036051353782 0 0 0
1781 1 0.08037421166345654 8.043594196352233 5.555606813637717 35.26031736152814 0 0 0
1782 2 -0.1515535370818899 6.926323664355376 6.323018789808412 35.1683284892391 0 0 0
1783 2 -0.1526516322547427 7.586912535307083 4.266117942452741 35.42842377902008 0 0 0
1784 1 -0.1768836441490199 8.77646937063022 5.927815094743736 36.57571964375776 0 0 0
1780 3 0.1899208857748761 9.506556865025045 6.355454434571875 33.89140470389513 0 0 0