LAMMPS data file via write_data, version 2 Aug 2023, timestep = 0, units = real

1128 atoms
3 atom types

0 4.43939 xlo xhi
0 8.134501 ylo yhi
0 260.694251 zlo zhi
0 0 0 xy xz yz

Masses

1 12.0107
2 18.998404
3 1.00794

Atoms # charge

14 1 0 0.587357 7.783889 0.49990099999999993 0 -1 0
15 3 0 1.2353199999999995 6.938473 0.463387 0 -1 0
16 3 0 1.2755869999999996 0.477244 0.462954 0 0 0
17 1 0 4.264683000000001 7.868815000000001 1.8583519999999993 -1 -1 0
18 2 0 3.4216620000000004 0.831689 1.7608959999999994 -1 0 0
19 2 0 3.4224540000000006 6.778071000000001 1.89338 -1 -1 0
20 1 0 0.642535 7.946420000000001 3.202914 0 -1 0
21 3 0 1.43762 7.254781 3.124906 0 -1 0
22 3 0 1.140644 0.735337 3.176444 0 0 0
23 1 0 4.298446 7.786307 4.505359 -1 -1 0
24 2 0 3.260862000000001 0.583841 4.549697 -1 0 0
25 2 0 3.706338 6.5426720000000005 4.46742 -1 -1 0
26 1 0 0.7015379999999997 7.944049000000001 5.841068 0 -1 0
27 2 0 1.789666 7.023437 5.964402999999997 0 -1 0
28 3 0 1.150251 0.796469 5.770237 0 0 0
29 1 0 4.3472040000000005 7.968653000000001 7.265273999999997 -1 -1 0
30 2 0 3.3003010000000006 0.691616 7.26304 -1 0 0
31 2 0 3.7366520000000008 6.735026 7.354803999999997 -1 -1 0
578 1 0 2.926739 3.905203 0.431933 0 0 0
579 3 0 3.643323 3.112249 0.4128709999999998 0 0 0
580 3 0 3.547676 4.759592999999997 0.38732599999999984 0 0 0
581 1 0 2.181878 3.8867079999999987 1.7575949999999994 0 0 0
582 2 0 1.286106 4.960554 1.7583829999999994 0 0 0
583 2 0 1.424688 2.7322869999999986 1.82345 0 0 0
584 1 0 3.1134809999999993 4.004065 3.0964079999999985 0 0 0
585 3 0 3.993576999999999 3.330049 3.0323739999999986 0 0 0
586 3 0 3.5420709999999995 4.982192999999999 3.090313 0 0 0
587 1 0 2.366184999999999 3.812055 4.387015 0 0 0
588 2 0 1.348865 4.735632 4.457515 0 0 0
589 2 0 1.76451 2.539613 4.346862 0 0 0
590 1 0 3.141846 3.8734449999999985 5.847238999999998 0 0 0
591 2 0 4.08987 2.835833 5.833190999999998 0 0 0
592 3 0 3.426515 4.865784 5.8714 0 0 0
593 1 0 2.3057689999999993 3.78389 7.198062999999998 0 0 0
594 2 0 1.30587 4.693303999999998 7.149652 0 0 0
595 2 0 1.6656289999999994 2.566603 7.2731619999999975 0 0 0
32 1 0 0.699559 8.098671 8.551095 0 -1 0
33 3 0 1.462798 7.375198 8.500560999999994 0 -1 0
34 3 0 1.203084 0.878708 8.521734 0 0 0
35 1 0 4.395736 7.981315 9.940627 -1 -1 0
36 2 0 3.431261000000001 0.820446 10.001047999999995 -1 0 0
37 2 0 3.7601860000000005 6.727669999999999 9.924705 -1 -1 0
38 1 0 0.754169 8.060414 11.276194 0 -1 0
39 3 0 1.488015 7.254058000000001 11.279397999999995 0 -1 0
40 3 0 1.39714 0.739879 11.241569999999994 0 0 0
41 1 0 4.428045 0.053526 12.648547999999995 -1 0 0
42 2 0 3.8087870000000006 1.3054519999999994 12.618109 -1 0 0
43 2 0 3.4187470000000006 7.234275 12.594144 -1 -1 0
44 1 0 0.808822 8.039024 13.967377999999997 0 -1 0
45 3 0 1.2610449999999993 7.129378 13.960061999999995 0 -1 0
46 2 0 1.937676 0.8359809999999996 13.973274999999994 0 0 0
47 1 0 0.042547 8.048747 15.432403999999995 0 -1 0
48 2 0 3.733468 1.094193 15.496985 -1 0 0
49 2 0 3.566624 6.994974999999999 15.441334999999999 -1 -1 0
596 1 0 3.0548039999999994 3.9753949999999985 8.527547 0 0 0
597 3 0 3.865701999999999 3.259795999999999 8.575276999999994 0 0 0
598 3 0 3.5364699999999987 4.891975 8.526973 0 0 0
599 1 0 2.2520999999999987 4.017016 9.883520999999995 0 0 0
600 2 0 1.5342 5.21712 9.847259999999995 0 0 0
601 2 0 1.314983 2.976731 9.820025 0 0 0
602 1 0 3.002039 3.945087 11.252744999999996 0 0 0
603 3 0 3.46032 3.015946999999999 11.160591999999994 0 0 0
604 3 0 3.7840049999999996 4.731492 11.353437999999997 0 0 0
605 1 0 2.2808369999999996 4.001671 12.554969999999996 0 0 0
606 2 0 1.4817899999999997 5.124514 12.444874999999994 0 0 0
607 2 0 1.3663779999999994 2.944695 12.526941 0 0 0
608 1 0 3.094555 4.058655 13.952397999999995 0 0 0
609 3 0 3.7147169999999985 3.165986999999999 13.922105999999994 0 0 0
610 2 0 4.033649 5.130072 13.879399999999995 0 0 0
611 1 0 2.317054 4.135024 15.320386999999995 0 0 0
612 2 0 1.601495 5.357478 15.303113999999995 0 0 0
613 2 0 1.3675389999999994 3.1072489999999986 15.317788999999996 0 0 0
50 1 0 0.7787869999999999 7.898382999999999 16.74721399999999 0 -1 0
51 3 0 1.368918 6.9520859999999995 16.73773 0 -1 0
52 3 0 1.500751 0.514272 16.648363 0 0 0
53 1 0 4.376996 8.038447 18.094123 -1 -1 0
54 2 0 3.618315 1.0738649999999994 17.988389 -1 0 0
55 2 0 3.4216700000000007 6.972403 18.194543 -1 -1 0
56 1 0 0.7297659999999998 8.08718 19.46536999999999 0 -1 0
57 3 0 1.4500929999999999 7.309049999999999 19.433541 0 -1 0
58 3 0 1.236127 0.895975 19.538694 0 0 0
59 1 0 4.319693 7.990293 20.769464 -1 -1 0
60 2 0 3.336335 0.817651 20.739932 -1 0 0
61 2 0 3.6550500000000006 6.7378350000000005 20.756851 -1 -1 0
62 1 0 0.6061809999999996 8.045519 22.167692 0 -1 0
63 2 0 1.704002 6.9784310000000005 22.098476999999995 0 -1 0
64 3 0 1.1291779999999996 0.795204 22.122984 0 0 0
65 1 0 4.329564 7.918283999999999 23.572678 -1 -1 0
66 2 0 3.320878 0.753536 23.601922 -1 0 0
67 2 0 3.6560720000000004 6.687654 23.604732 -1 -1 0
614 1 0 2.9880519999999997 4.069689 16.734294 0 0 0
615 3 0 3.556755 3.167206999999999 16.661554 0 0 0
616 3 0 3.6574429999999998 4.882321 16.806808 0 0 0
617 1 0 2.1117399999999997 4.083184 18.023036999999988 0 0 0
618 2 0 1.329043 5.212533 17.997028 0 0 0
619 2 0 1.1879359999999997 3.013208 17.994613999999988 0 0 0
620 1 0 2.8213909999999993 4.06331 19.445348 0 0 0
621 3 0 3.529543999999999 3.241551 19.476796 0 0 0
622 3 0 3.456694 4.910629 19.535649 0 0 0
623 1 0 2.021969 3.909789 20.737641 0 0 0
624 2 0 1.001213 4.844513 20.675439 0 0 0
625 2 0 1.4693759999999993 2.658512 20.738439 0 0 0
626 1 0 2.898174 4.089624 22.066441 0 0 0
627 2 0 4.024581 3.228149 21.96153399999999 0 0 0
628 3 0 3.266088 5.084973 22.122758999999988 0 0 0
629 1 0 2.100552 3.866414 23.458895 0 0 0
630 2 0 1.075425 4.786571 23.552304 0 0 0
631 2 0 1.502512 2.6230339999999988 23.395373 0 0 0
68 1 0 0.6767069999999997 0.0007749999999999996 24.91850299999999 0 0 0
69 3 0 1.430757 7.352742999999999 24.911501 0 -1 0
70 3 0 1.0750969999999997 0.972378 24.95316999999999 0 0 0
71 1 0 4.2740670000000005 8.088439 26.237713 -1 -1 0
72 2 0 3.31132 0.962069 26.230107 -1 0 0
73 2 0 3.503339000000001 6.918739 26.261016 -1 -1 0
74 1 0 0.618547 8.095391000000001 27.643423 0 -1 0
75 3 0 1.2763559999999996 7.271715 27.793026 0 -1 0
76 3 0 1.238705 0.837266 27.669583 0 0 0
77 1 0 4.3326400000000005 0.121962 28.97867599999999 -1 0 0
78 2 0 3.7839750000000003 1.450712 28.921822 -1 0 0
79 2 0 3.224894000000001 7.357141999999999 28.947209999999988 -1 -1 0
80 1 0 0.632975 8.038275 30.351508 0 -1 0
81 3 0 1.152697 7.124786 30.348121999999996 0 -1 0
82 2 0 1.751677 0.7977239999999997 30.40856999999999 0 0 0
83 1 0 4.336115 8.12972 31.81991999999999 -1 -1 0
84 2 0 3.7624270000000006 1.228617 31.94898799999999 -1 0 0
85 2 0 3.2561090000000004 7.216108 31.82401199999999 -1 -1 0
632 1 0 2.813321 3.897962 24.81357 0 0 0
633 3 0 3.5798919999999987 3.175714 24.68021 0 0 0
634 3 0 3.335199999999999 4.809453 24.893838 0 0 0
635 1 0 2.075938 3.8134819999999996 26.185985 0 0 0
636 2 0 1.137463 4.848822 26.195099 0 0 0
637 2 0 1.3811989999999996 2.595574 26.248027 0 0 0
638 1 0 2.901417 3.9540139999999986 27.528573 0 0 0
639 3 0 3.3957369999999987 2.983107 27.494864 0 0 0
640 3 0 3.6612209999999994 4.724888 27.553777999999998 0 0 0
641 1 0 2.199624 4.056237 28.88421699999999 0 0 0
642 2 0 1.4828289999999993 5.295648 28.87461099999999 0 0 0
643 2 0 1.293288 3.058402999999999 28.96919399999999 0 0 0
644 1 0 3.046059 4.04434 30.257096 0 0 0
645 3 0 3.639362999999999 3.143934 30.17071699999999 0 0 0
646 2 0 4.082396 5.029864 30.247434 0 0 0
647 1 0 2.286559 4.050109 31.65787799999999 0 0 0
648 2 0 1.480953 5.191813999999999 31.80178199999999 0 0 0
649 2 0 1.425333 2.977249 31.705955 0 0 0
86 1 0 0.717973 7.920310000000001 33.06344299999998 0 -1 0
87 3 0 1.235511 6.996997 32.975646 0 -1 0
88 3 0 1.5521199999999997 0.462926 33.01072 0 0 0
89 1 0 4.437138000000001 8.036745 34.479058 -1 -1 0
90 2 0 3.604606000000001 1.040573 34.43634399999998 -1 0 0
91 2 0 3.536658 6.928893999999999 34.531138 -1 -1 0
92 1 0 0.757173 8.095582 35.86338 0 -1 0
93 3 0 1.561402 7.388926999999999 35.860101999999976 0 -1 0
94 3 0 1.1482759999999996 0.933031 35.850602 0 0 0
95 1 0 4.398372 7.926766000000001 37.173459 -1 -1 0
96 2 0 3.2999720000000003 0.6735449999999996 37.17391 -1 0 0
97 1 0 0.767283 8.121745 38.52441699999998 0 -1 0
98 2 0 1.8868629999999993 7.146803999999999 38.52694899999998 0 -1 0
99 1 0 4.4367 7.954396 39.926786 -1 -1 0
100 2 0 3.3895809999999997 0.7351529999999996 39.976369999999996 -1 0 0
101 2 0 3.869726 6.719584 40.039341 -1 -1 0
650 1 0 3.171346 4.019577 32.88658 0 0 0
651 3 0 3.768916 3.1263779999999985 32.817623 0 0 0
652 3 0 3.804313999999999 4.884909 32.84156099999998 0 0 0
653 1 0 2.44924 4.07377 34.370315 0 0 0
654 2 0 1.746821 5.224433 34.448873 0 0 0
655 2 0 1.4488009999999993 3.086519 34.330092 0 0 0
656 1 0 3.1204869999999985 3.9695 35.745762 0 0 0
657 3 0 3.557485999999999 3.018898 35.777493 0 0 0
658 3 0 3.8416699999999993 4.7385 35.764659 0 0 0
659 1 0 2.251293 3.844979 37.11872399999998 0 0 0
660 2 0 1.3505499999999997 4.912532999999997 37.062531 0 0 0
661 1 0 2.8891149999999994 3.815283 38.534436 0 0 0
662 2 0 3.914710999999999 2.7361919999999986 38.568404 0 0 0
663 1 0 2.081428 3.832418 39.96387899999998 0 0 0
664 2 0 1.100346 4.869486 39.937038 0 0 0
665 2 0 1.363951 2.6413849999999996 40.079936 0 0 0
102 1 0 0.8011499999999999 0.04511699999999998 41.20767199999998 0 0 0
103 3 0 1.460133 7.3904440000000005 41.215753 0 -1 0
104 3 0 1.31206 0.9396669999999997 41.009156 0 0 0
105 1 0 4.38168 8.077931 42.57107699999998 -1 -1 0
106 2 0 3.511261000000001 1.0471849999999996 42.597475 -1 0 0
107 2 0 3.6095599999999997 6.883309000000001 42.57378499999999 -1 -1 0
108 1 0 0.7747669999999998 0.008627 43.90860599999998 0 0 0
109 3 0 1.530119 7.369547000000002 43.994705 0 -1 0
110 3 0 1.3505989999999999 0.904967 43.900992 0 0 0
111 1 0 0.003417 8.105762 45.22271499999999 0 -1 0
112 2 0 3.702008 1.125004 45.19985399999998 -1 0 0
113 2 0 3.5655420000000007 7.080017999999998 45.128552 -1 -1 0
114 1 0 0.729637 8.100453 46.693369 0 -1 0
115 3 0 1.263711 7.1813 46.726868 0 -1 0
116 2 0 1.84664 0.879076 46.751829 0 0 0
117 1 0 4.418754000000001 0.051344 48.083221 -1 0 0
118 2 0 3.877963 1.286691 48.235665 -1 0 0
119 2 0 3.3436690000000007 7.291264 48.046581 -1 -1 0
666 1 0 2.808049 3.965376 41.269716 0 0 0
667 3 0 3.512492999999999 3.123007 41.316411 0 0 0
668 3 0 3.3975099999999987 4.81734 41.20072 0 0 0
669 1 0 2.084792 3.9976449999999986 42.67527799999998 0 0 0
670 2 0 1.312765 5.134784 42.724304 0 0 0
671 2 0 1.1326089999999995 2.904686 42.763146 0 0 0
672 1 0 2.934339 3.9311209999999996 44.03685599999998 0 0 0
673 3 0 3.3333689999999985 2.941371 44.01827 0 0 0
674 3 0 3.743022 4.616838999999997 43.92673999999998 0 0 0
675 1 0 2.224373 4.187951 45.359398 0 0 0
676 2 0 1.60736 5.429721999999997 45.287239 0 0 0
677 2 0 1.184328 3.229806 45.37137 0 0 0
678 1 0 2.995263 4.079999 46.757489 0 0 0
679 3 0 3.573951 3.192953 46.786772999999975 0 0 0
680 2 0 4.0311 5.055485 46.79565299999998 0 0 0
681 1 0 2.159552 4.114068 48.131096 0 0 0
682 2 0 1.418567 5.289025 48.225384 0 0 0
683 2 0 1.2450269999999997 3.067492 48.148268 0 0 0
120 1 0 0.7784389999999999 7.916505 49.39888699999998 0 -1 0
121 3 0 1.1805999999999994 6.896284000000001 49.319554 0 -1 0
122 3 0 1.616229 0.482 49.36736199999998 0 0 0
123 1 0 0.074833 7.986630000000001 50.77860399999998 0 -1 0
124 2 0 3.711206 0.99488 50.752465 -1 0 0
125 2 0 3.6881999999999997 6.873515 50.818776999999976 -1 -1 0
126 1 0 0.851398 8.123984 52.18492999999998 0 -1 0
127 3 0 1.652092 7.439105000000001 52.187476 0 -1 0
128 3 0 1.2654149999999995 0.947683 52.1297 0 0 0
129 1 0 0.141724 7.9887060000000005 53.51636999999998 0 -1 0
130 2 0 3.5446540000000004 0.764975 53.46492 -1 0 0
131 2 0 3.964835 6.7444239999999995 53.41414599999998 -1 -1 0
132 1 0 0.9110299999999997 8.042684 54.893026 0 -1 0
133 2 0 1.903405 6.974966 54.93202499999998 0 -1 0
134 3 0 1.448287 0.816624 54.915888 0 0 0
135 1 0 0.04254099999999998 7.911954999999999 56.271365 0 -1 0
136 2 0 3.4447510000000006 0.717189 56.24794999999998 -1 0 0
137 2 0 3.9247000000000005 6.6486 56.31037299999998 -1 -1 0
684 1 0 2.933907 3.975545 49.43740599999998 0 0 0
685 3 0 3.483589 3.0383879999999985 49.311853999999975 0 0 0
686 3 0 3.5625769999999997 4.81332 49.457502 0 0 0
687 1 0 2.129429 3.892907 50.76429299999998 0 0 0
688 2 0 1.2546039999999996 4.985967 50.871759 0 0 0
689 2 0 1.4092069999999999 2.7075719999999985 50.763451 0 0 0
690 1 0 3.025053 3.8906859999999988 52.06383599999998 0 0 0
691 3 0 3.713126 3.0784489999999987 52.065880999999976 0 0 0
692 3 0 3.5926149999999994 4.777045 52.134067 0 0 0
693 1 0 2.2712149999999993 3.769931 53.395004 0 0 0
694 2 0 1.310669 4.727941999999997 53.38775499999998 0 0 0
695 2 0 1.700015 2.499241 53.331628 0 0 0
696 1 0 3.118649 3.8993579999999985 54.778619999999975 0 0 0
697 2 0 4.159694 2.798041 54.79439899999998 0 0 0
698 3 0 3.587367 4.820812999999998 54.688997 0 0 0
699 1 0 2.3106149999999985 3.849845 56.120681999999995 0 0 0
700 2 0 1.3712539999999998 4.894346 56.090401 0 0 0
701 2 0 1.57707 2.6403699999999986 56.157062 0 0 0
138 1 0 0.8139149999999997 8.063014 57.562553 0 -1 0
139 3 0 1.647853 7.411373999999999 57.642280999999976 0 -1 0
140 3 0 1.1512699999999996 0.9109529999999997 57.514493999999985 0 0 0
141 1 0 0.046201999999999986 7.982154999999999 59.012835 0 -1 0
142 2 0 3.501879 0.879265 59.025681 -1 0 0
143 2 0 3.7370769999999998 6.779715 59.057314 -1 -1 0
144 1 0 0.861693 8.022689 60.30786399999998 0 -1 0
145 3 0 1.4386859999999992 7.140103000000001 60.444992999999975 0 -1 0
146 3 0 1.458823 0.76702 60.20813799999998 0 0 0
147 1 0 4.405336999999999 7.978445999999999 61.607756 -1 -1 0
148 2 0 3.541165 0.9626899999999998 61.57739399999998 -1 0 0
149 2 0 3.5577830000000006 6.883409 61.563208 -1 -1 0
150 1 0 0.682595 7.995102 62.993487 0 -1 0
151 3 0 1.3011709999999996 7.129648 63.074847 0 -1 0
152 3 0 1.3707319999999996 0.674606 63.050732 0 0 0
153 1 0 4.2876900000000004 8.115224000000001 64.303032 -1 -1 0
154 2 0 3.578818 1.138026 64.244239 -1 0 0
155 2 0 3.3885570000000005 7.038881 64.35004 -1 -1 0
702 1 0 3.030586 3.892211 57.518986 0 0 0
703 3 0 3.618045 3.033181 57.530512999999985 0 0 0
704 3 0 3.8064349999999987 4.631701 57.47247199999998 0 0 0
705 1 0 2.265859 4.00714 58.918593 0 0 0
706 2 0 1.45412 5.135706999999997 58.910793 0 0 0
707 2 0 1.436338 2.936903 58.89695799999998 0 0 0
708 1 0 3.087937 3.9432309999999986 60.238361 0 0 0
709 3 0 3.651399 3.047017 60.122673 0 0 0
710 3 0 3.793597 4.830205 60.22654299999998 0 0 0
711 1 0 2.308946 3.951708 61.592257 0 0 0
712 2 0 1.398817 4.975362 61.50957 0 0 0
713 2 0 1.502322 2.753551 61.580295 0 0 0
714 1 0 2.948612 4.032211 63.02439799999998 0 0 0
715 3 0 3.595807 3.178613 63.04651 0 0 0
716 3 0 3.6483549999999996 4.841911 63.038192 0 0 0
717 1 0 2.1269529999999994 4.019308 64.359313 0 0 0
718 2 0 1.23645 5.153711 64.34131 0 0 0
719 2 0 1.327707 2.855912 64.351893 0 0 0
156 1 0 0.6599379999999998 8.064445000000001 65.647751 0 -1 0
157 3 0 1.343159 7.185104 65.66068299999996 0 -1 0
158 3 0 1.345643 0.7404329999999997 65.68215599999998 0 0 0
159 1 0 4.313792 8.008826 66.922211 -1 -1 0
160 2 0 3.3256669999999997 0.862584 66.88037599999996 -1 0 0
161 2 0 3.6616380000000004 6.783941999999999 67.009226 -1 -1 0
162 1 0 0.6558839999999999 0.083358 68.37073599999995 0 0 0
163 3 0 1.535335 7.621813999999999 68.351886 0 -1 0
164 3 0 1.041065 1.070786 68.367117 0 0 0
165 1 0 4.43831 8.015673 69.707745 -1 -1 0
166 2 0 3.432015 0.839536 69.817682 -1 0 0
167 2 0 3.8133420000000005 6.788810000000001 69.62715399999999 -1 -1 0
168 1 0 0.8365509999999997 8.093091 71.105255 0 -1 0
169 2 0 1.8245409999999995 7.116913000000001 71.084954 0 -1 0
170 3 0 1.2967439999999995 0.9003599999999997 71.14597 0 0 0
171 1 0 0.009542 7.968008 72.44856599999996 0 -1 0
172 2 0 3.4563840000000003 0.8590079999999997 72.56829799999997 -1 0 0
173 2 0 3.707048 6.776747 72.457824 -1 -1 0
720 1 0 2.904063 3.990155 65.716104 0 0 0
721 3 0 3.567858 3.155758 65.689172 0 0 0
722 3 0 3.5068619999999995 4.903619999999999 65.720827 0 0 0
723 1 0 2.087715 3.9669419999999986 67.07474699999996 0 0 0
724 2 0 1.3465439999999995 5.114982999999997 67.113341 0 0 0
725 2 0 1.197682 2.908309999999999 67.084225 0 0 0
726 1 0 2.914191 3.894425 68.399116 0 0 0
727 3 0 3.4896549999999986 2.996083 68.39411099999995 0 0 0
728 3 0 3.6327279999999993 4.682814 68.44918399999996 0 0 0
729 1 0 2.153817 3.87181 69.69764799999996 0 0 0
730 2 0 1.256908 4.939457 69.684199 0 0 0
731 2 0 1.356929 2.731704 69.757964 0 0 0
732 1 0 2.998027999999999 3.9303949999999985 71.06876 0 0 0
733 2 0 4.009251 2.932226 71.033531 0 0 0
734 3 0 3.600984 4.806439 71.080907 0 0 0
735 1 0 2.228335 3.891118 72.476422 0 0 0
736 2 0 1.239442 4.894305 72.449106 0 0 0
737 2 0 1.54174 2.643991 72.514061 0 0 0
174 1 0 0.8547669999999997 7.924545 73.699546 0 -1 0
175 3 0 1.314392 6.979639000000001 73.58042699999999 0 -1 0
176 3 0 1.662767 0.547936 73.700311 0 0 0
177 1 0 0.0003959999999999998 8.008056 75.112839 0 -1 0
178 2 0 3.7387900000000003 1.061493 75.052564 -1 0 0
179 2 0 3.5592400000000004 6.965484 75.059698 -1 -1 0
180 1 0 0.7474839999999998 8.021665 76.485115 0 -1 0
181 3 0 1.356499 7.172354999999999 76.557187 0 -1 0
182 3 0 1.389972 0.7307339999999997 76.54129199999997 0 0 0
183 1 0 4.431279000000001 8.062813 77.82871099999996 -1 -1 0
184 2 0 3.592807000000001 1.050025 77.772401 -1 0 0
185 2 0 3.613280000000001 6.981715 77.84453799999996 -1 -1 0
186 1 0 0.7789199999999996 0.023797 79.214941 0 0 0
187 3 0 1.546857 7.3842870000000005 79.348007 0 -1 0
188 2 0 1.702014 1.207588 79.220648 0 0 0
189 1 0 4.421480000000001 0.065291 80.58343 -1 0 0
190 2 0 3.780583 1.263186 80.621656 -1 0 0
738 1 0 3.03928 4.056714 73.787236 0 0 0
739 3 0 3.7363719999999985 3.29861 73.83378 0 0 0
740 3 0 3.551481999999999 4.954148 73.687434 0 0 0
741 1 0 2.215396 3.9728679999999987 75.15580499999996 0 0 0
742 2 0 1.2547659999999996 4.99712 75.157566 0 0 0
743 2 0 1.4952509999999994 2.77289 75.113891 0 0 0
744 1 0 3.008868 4.004528 76.510246 0 0 0
745 3 0 3.593801 3.073329 76.529248 0 0 0
746 3 0 3.658784999999999 4.878035 76.463309 0 0 0
747 1 0 2.272455 4.063006 77.841231 0 0 0
748 2 0 1.622921 5.274745 77.862443 0 0 0
749 2 0 1.218206 3.133768 77.80353599999995 0 0 0
750 1 0 2.948621 3.904389 79.278973 0 0 0
751 3 0 3.3329109999999997 2.908233 79.33312 0 0 0
752 2 0 4.026364 4.782825 79.390445 0 0 0
753 1 0 2.119632 4.046343 80.695201 0 0 0
754 2 0 1.5358869999999998 5.324311999999997 80.74117999999996 0 0 0
191 1 0 0.647044 0.022665 81.969498 0 0 0
192 3 0 1.351037 7.340253999999999 81.94791999999995 0 -1 0
193 1 0 4.224748000000001 8.008361 83.242085 -1 -1 0
194 2 0 3.302042 0.929416 83.194619 -1 0 0
195 2 0 3.451421 6.837782000000001 83.236136 -1 -1 0
196 1 0 0.533319 0.013365999999999996 84.687597 0 0 0
197 3 0 1.305204 7.399418999999999 84.70808099999996 0 -1 0
198 3 0 1.080497 0.866984 84.78331699999998 0 0 0
199 1 0 4.236416 7.921655999999999 85.992709 -1 -1 0
200 2 0 3.244337000000001 0.79606 86.03937899999995 -1 0 0
201 2 0 3.580283 6.748257999999999 85.936727 -1 -1 0
202 1 0 0.646657 8.027567 87.37856499999997 0 -1 0
203 2 0 1.7526649999999993 7.004483999999999 87.348604 0 -1 0
204 3 0 1.072029 0.877454 87.29558399999996 0 0 0
205 1 0 4.383272 7.940875000000001 88.76276 -1 -1 0
206 2 0 3.417077 0.8207299999999996 88.81687699999996 -1 0 0
207 2 0 3.690718 6.726555 88.829788 -1 -1 0
755 1 0 2.9161979999999987 3.871569999999999 81.949196 0 0 0
756 3 0 3.4069369999999988 2.9037979999999988 81.836648 0 0 0
757 1 0 2.116051 3.937056 83.370597 0 0 0
758 2 0 1.3787759999999998 5.118706 83.32172799999998 0 0 0
759 2 0 1.2766719999999998 2.869092 83.326651 0 0 0
760 1 0 2.955612 3.889605 84.698952 0 0 0
761 3 0 3.5891519999999995 3.068665 84.78214099999995 0 0 0
762 3 0 3.545711999999999 4.730314 84.638344 0 0 0
763 1 0 2.130153 3.776942999999999 85.97704999999996 0 0 0
764 2 0 1.102924 4.70163 85.931416 0 0 0
765 2 0 1.5885669999999996 2.533431 85.980082 0 0 0
766 1 0 2.9327869999999985 3.926768999999999 87.398337 0 0 0
767 2 0 4.000431 2.969941 87.32997399999999 0 0 0
768 3 0 3.3432349999999986 4.896981 87.468018 0 0 0
769 1 0 2.13426 3.8239079999999985 88.77963399999999 0 0 0
770 2 0 1.140472 4.824275 88.902498 0 0 0
771 2 0 1.464809 2.601982 88.851216 0 0 0
208 1 0 0.766389 8.045977 90.120923 0 -1 0
209 3 0 1.5332599999999994 7.216002000000001 90.196258 0 -1 0
210 3 0 1.460108 0.6507919999999997 90.018031 0 0 0
211 1 0 4.397457 8.095207 91.48408999999995 -1 -1 0
212 2 0 3.5964240000000007 1.100432 91.499551 -1 0 0
213 2 0 3.6074440000000005 6.963695999999999 91.515236 -1 -1 0
214 1 0 0.7254889999999997 8.123032 92.886539 0 -1 0
215 3 0 1.2836069999999997 7.272814000000001 92.95019899999996 0 -1 0
216 3 0 1.3281869999999998 0.86929 92.943669 0 0 0
217 1 0 4.280839 0.06204399999999998 94.118555 -1 0 0
218 2 0 3.6095490000000003 1.295565 94.03994299999995 -1 0 0
219 2 0 3.3473030000000006 7.176945999999999 94.06589299999996 -1 -1 0
220 1 0 0.563734 8.068352 95.522338 0 -1 0
221 3 0 1.1749719999999995 7.116716 95.52062599999995 0 -1 0
222 2 0 1.6631249999999995 0.893979 95.58134699999998 0 0 0
223 1 0 4.219674 0.000101 96.930371 -1 0 0
224 2 0 3.5072560000000004 1.208809 97.02438199999996 -1 0 0
225 2 0 3.2817470000000006 7.101693000000001 97.00117 -1 -1 0
772 1 0 2.980134 3.938009 90.063569 0 0 0
773 3 0 3.7304339999999994 3.214154 90.10025799999995 0 0 0
774 3 0 3.543111 4.851262999999998 89.912832 0 0 0
775 1 0 2.2257109999999987 3.9548969999999986 91.452075 0 0 0
776 2 0 1.460727 5.117495 91.443351 0 0 0
777 2 0 1.323148 2.908359 91.50590599999995 0 0 0
778 1 0 3.072937999999999 3.961367 92.80291199999996 0 0 0
779 3 0 3.6823579999999994 3.0878409999999987 92.913131 0 0 0
780 3 0 3.687137 4.8205459999999976 92.72189499999996 0 0 0
781 1 0 2.291394 4.069332 94.089134 0 0 0
782 2 0 1.545487 5.248242 94.001939 0 0 0
783 2 0 1.328762 3.0377919999999987 94.103617 0 0 0
784 1 0 3.102554999999999 4.041847 95.523376 0 0 0
785 3 0 3.5879199999999987 3.079266 95.59755599999995 0 0 0
786 2 0 4.065671 5.092519 95.553517 0 0 0
787 1 0 2.306106 4.025295 96.866891 0 0 0
788 2 0 1.677449 5.29771 96.981417 0 0 0
789 2 0 1.21518 3.122748999999999 96.775211 0 0 0
226 1 0 0.651351 8.07983 98.15272899999995 0 -1 0
227 3 0 1.201841 7.144716000000001 98.110051 0 -1 0
228 3 0 1.36581 0.7116669999999997 98.122271 0 0 0
229 1 0 4.4092080000000005 0.008935999999999994 99.600552 -1 0 0
230 2 0 3.5962550000000006 1.124329 99.579243 -1 0 0
231 2 0 3.4988200000000003 7.056231 99.70006399999995 -1 -1 0
232 1 0 0.723588 0.088378 100.938583 0 0 0
233 3 0 1.456203 7.465821 100.86213 0 -1 0
234 3 0 1.152887 1.0736499999999993 101.082056 0 0 0
235 1 0 4.338226000000001 7.937772000000001 102.22611699999996 -1 -1 0
236 2 0 3.3092399999999995 0.699829 102.199607 -1 0 0
237 2 0 3.8130479999999998 6.733675000000001 102.085516 -1 -1 0
238 1 0 0.604859 8.068153 103.63928 0 -1 0
239 2 0 1.732145 7.060106999999999 103.687843 0 -1 0
240 3 0 1.123103 0.837659 103.67402 0 0 0
241 1 0 4.235275000000001 8.003806 105.02917899999996 -1 -1 0
242 2 0 3.301906000000001 0.908258 105.054121 -1 0 0
243 2 0 3.5794220000000005 6.816105 105.04904999999995 -1 -1 0
790 1 0 3.050869 3.7363339999999985 98.169853 0 0 0
791 3 0 3.478342999999999 2.768586999999999 98.125336 0 0 0
792 3 0 3.848344999999999 4.41331 98.195508 0 0 0
793 1 0 2.223337 3.893052 99.512469 0 0 0
794 2 0 1.630587 5.14309 99.447203 0 0 0
795 2 0 1.195302 2.9800209999999985 99.53889099999996 0 0 0
796 1 0 2.994789 3.796102 100.867236 0 0 0
797 3 0 3.372369 2.797749 100.874992 0 0 0
798 3 0 3.8387409999999993 4.404757 100.86093599999995 0 0 0
799 1 0 2.28225 3.926223 102.263059 0 0 0
800 2 0 1.485465 5.004623 102.14204299999999 0 0 0
801 2 0 1.4676039999999995 2.839432 102.361741 0 0 0
802 1 0 3.049587 4.041124 103.666765 0 0 0
803 2 0 4.043189 2.990894 103.720693 0 0 0
804 3 0 3.667523999999999 4.904424 103.596476 0 0 0
805 1 0 2.220286 3.9597939999999987 105.063372 0 0 0
806 2 0 1.190535 4.920069 105.105566 0 0 0
807 2 0 1.5914879999999993 2.72256 105.111111 0 0 0
244 1 0 0.545302 8.084274 106.380278 0 -1 0
245 3 0 1.166635 7.2427660000000005 106.400184 0 -1 0
246 3 0 1.2073899999999997 0.7885069999999996 106.269005 0 0 0
247 1 0 4.234365 8.104655 107.766684 -1 -1 0
248 2 0 3.348455 1.076924 107.88750199999996 -1 0 0
249 2 0 3.402283000000001 6.956762000000001 107.77672999999996 -1 -1 0
250 1 0 0.631584 8.111324 109.123434 0 -1 0
251 3 0 1.359902 7.262785 109.131194 0 -1 0
252 3 0 1.219179 0.864526 109.07749399999996 0 0 0
253 1 0 4.25079 0.016809 110.414771 -1 0 0
254 2 0 3.595279 1.214169 110.407355 -1 0 0
255 2 0 3.34913 7.135798 110.313526 -1 -1 0
256 1 0 0.6539459999999999 8.091457 111.826688 0 -1 0
257 3 0 0.960641 7.086427999999999 111.833553 0 -1 0
258 2 0 1.744478 0.776462 111.814666 0 0 0
259 1 0 4.331197 0.137967 113.219335 -1 0 0
260 2 0 3.6859979999999997 1.390632 113.166013 -1 0 0
261 2 0 3.336299000000001 7.290853000000001 113.317427 -1 -1 0
808 1 0 2.9731839999999985 4.107806 106.35429299999996 0 0 0
809 3 0 3.723261 3.390087999999999 106.351113 0 0 0
810 3 0 3.430815 5.09834 106.25258099999996 0 0 0
811 1 0 2.132782 4.021682 107.76057399999996 0 0 0
812 2 0 1.3901449999999995 5.177027 107.77065199999996 0 0 0
813 2 0 1.25961 2.9424929999999985 107.614771 0 0 0
814 1 0 2.9028799999999992 3.922736 109.078558 0 0 0
815 3 0 3.467236 2.9731819999999987 109.043634 0 0 0
816 3 0 3.650727 4.695888 109.115356 0 0 0
817 1 0 2.146621 4.038229 110.44092299999996 0 0 0
818 2 0 1.45943 5.20835 110.35463 0 0 0
819 2 0 1.215695 2.994277 110.38386799999996 0 0 0
820 1 0 2.904251 3.9846689999999985 111.834573 0 0 0
821 3 0 3.374263 3.0519769999999986 111.861829 0 0 0
822 2 0 4.144932 4.816046 111.775107 0 0 0
823 1 0 2.183193 4.127298 113.212467 0 0 0
824 2 0 1.5621139999999998 5.380027999999998 113.211786 0 0 0
825 2 0 1.185254 3.1242729999999987 113.291378 0 0 0
262 1 0 0.6077449999999998 0.20122199999999993 114.535961 0 0 0
263 3 0 1.3684819999999995 7.567913999999999 114.52742899999998 0 -1 0
264 3 0 1.135913 1.128425 114.57932599999995 0 0 0
265 1 0 4.24615 0.117779 115.91061099999996 -1 0 0
266 2 0 3.3344760000000004 1.199183 115.93544099999995 -1 0 0
267 2 0 3.501906000000001 7.113518 115.94644699999996 -1 -1 0
268 1 0 0.674825 0.165554 117.264473 0 0 0
269 3 0 1.429051 7.555953000000001 117.13495 0 -1 0
270 3 0 1.167502 1.096223 117.41433099999996 0 0 0
271 1 0 0.044596 8.070992 118.63966299999996 0 -1 0
272 2 0 3.404792000000001 0.821744 118.696079 -1 0 0
273 2 0 3.9160840000000006 6.775842 118.56540999999996 -1 -1 0
274 1 0 0.8982179999999996 8.133792 119.988187 0 -1 0
275 2 0 1.929726 7.0563460000000005 120.03703399999996 0 -1 0
276 3 0 1.447136 0.935726 119.90834399999996 0 0 0
277 1 0 0.12446799999999995 8.040888 121.40240899999996 0 -1 0
278 2 0 3.571803 0.862596 121.35361999999996 -1 0 0
279 2 0 3.9304220000000005 6.819234000000001 121.381103 -1 -1 0
826 1 0 2.984824 4.022859 114.538892 0 0 0
827 3 0 3.459332 3.070236 114.489794 0 0 0
828 3 0 3.7607239999999997 4.709414999999999 114.48764399999996 0 0 0
829 1 0 2.259698 4.053386 115.96072099999996 0 0 0
830 2 0 1.588768 5.277045 116.06365199999996 0 0 0
831 2 0 1.258995 3.032419999999999 115.95637 0 0 0
832 1 0 3.0501649999999985 3.9277109999999986 117.29878999999997 0 0 0
833 3 0 3.717388999999999 3.0808439999999986 117.341276 0 0 0
834 3 0 3.6478419999999985 4.803722 117.37361799999995 0 0 0
835 1 0 2.213851 3.835606 118.57739999999995 0 0 0
836 2 0 1.273703 4.902396999999998 118.523565 0 0 0
837 2 0 1.49753 2.6085929999999986 118.57850599999996 0 0 0
838 1 0 3.035426 3.979512 119.899466 0 0 0
839 2 0 4.057666 3.018455 119.961502 0 0 0
840 3 0 3.575472 4.920397 119.908505 0 0 0
841 1 0 2.253756 3.896983 121.364079 0 0 0
842 2 0 1.132287 4.765342 121.338495 0 0 0
843 2 0 1.73989 2.594901 121.40936499999995 0 0 0
280 1 0 0.854311 8.121527 122.752241 0 -1 0
281 3 0 1.509127 7.304936 122.847384 0 -1 0
282 3 0 1.5278189999999998 0.8402 122.74615999999996 0 0 0
283 1 0 0.023467 8.129375 124.08257499999996 0 -1 0
284 2 0 3.7909360000000007 1.2022099999999993 124.12809299999996 -1 0 0
285 1 0 0.8107569999999996 8.057239000000001 125.431471 0 -1 0
286 3 0 1.379202 7.166499 125.37072399999995 0 -1 0
287 1 0 4.366642000000001 8.082023000000001 126.764992 -1 -1 0
288 2 0 3.527134 1.054659 126.71649399999997 -1 0 0
289 2 0 3.583966 6.888962 126.759305 -1 -1 0
290 1 0 0.8026449999999998 8.109272 128.04317 0 -1 0
291 3 0 1.409261 7.25089 127.94843 0 -1 0
292 3 0 1.4407739999999993 0.825221 127.991175 0 0 0
293 1 0 4.426882 0.033456 129.38566 -1 0 0
294 2 0 3.6418130000000004 1.121605 129.375891 -1 0 0
295 2 0 3.5766690000000003 7.030250000000001 129.345791 -1 -1 0
844 1 0 2.957386 4.140476 122.64300399999998 0 0 0
845 3 0 3.8294919999999997 3.473368 122.66429 0 0 0
846 3 0 3.335502 5.209527 122.654703 0 0 0
847 1 0 2.22973 4.011361 124.10160699999996 0 0 0
848 2 0 1.3331439999999999 5.072331 124.2222 0 0 0
849 1 0 3.1414399999999993 4.035255 125.357861 0 0 0
850 3 0 3.8180649999999994 3.1786869999999987 125.38398199999996 0 0 0
851 1 0 2.37806 3.987409999999999 126.792566 0 0 0
852 2 0 1.546048 5.065397 126.85057699999996 0 0 0
853 2 0 1.54657 2.820205 126.783213 0 0 0
854 1 0 3.135525 3.9199 128.149095 0 0 0
855 3 0 3.61662 2.971077 128.196932 0 0 0
856 3 0 3.949121 4.629719 128.056159 0 0 0
857 1 0 2.307739 4.0108 129.503997 0 0 0
858 2 0 1.536321 5.14742 129.470635 0 0 0
859 2 0 1.4349359999999998 2.929165 129.506181 0 0 0
296 1 0 0.7673139999999997 0.08598299999999996 130.72207799999993 0 0 0
297 3 0 1.550146 7.510585000000001 130.753631 0 -1 0
298 3 0 1.228131 1.034184 130.819832 0 0 0
299 1 0 4.426956000000001 8.069288 132.103264 -1 -1 0
300 2 0 3.3852320000000007 0.933497 132.088834 -1 0 0