LAMMPS (2 Aug 2023 - Development - patch_2Aug2023-289-gafabb279a3)
  using 1 OpenMP thread(s) per MPI task

# REAX potential for
# .....

#package         kokkos neigh half comm no newton on

boundary        s p p
units           real

atom_style      charge
#read_data       final.lmpdata nocoeff
read_data       lmp.data nocoeff
Reading data file ...
  triclinic box = (0 0 0) to (22.828464 8.088404 259.21693) with tilt (0 0 0)
  2 by 1 by 16 MPI processor grid
  reading atoms ...
  4512 atoms
  read_data CPU = 0.020 seconds


pair_style      reax/c NULL checkqeq no
pair_modify     shift yes
pair_coeff      * * ../../../ForceFiledFiles/ffield.reax.FC C F H
Reading potential file ../../../ForceFiledFiles/ffield.reax.FC with DATE: 2013-06-28
WARNING: Changed valency_val to valency_boc for X (src/REAXFF/reaxff_ffield.cpp:296)

neighbor        2. bin
neigh_modify    every 10 delay 0 check no
fix             q all qeq/reax 1 0.0 10.0 1e-6 reax/c

variable        dt_MD equal 0.1
variable        dt_MIN equal 10*v_dt_MD
timestep        ${dt_MD}
timestep        0.1
thermo_style    custom step temp epair etotal press fmax fnorm density
thermo          20
variable        Tdamp equal 100*dt
variable        Pdamp equal 100*dt
variable        T0 equal 300
variable        T1 equal 300
thermo_style    custom step temp epair etotal press fmax fnorm density vol
#dump            dcd all dcd 4 dump.dcd
#dump_modify     dcd unwrap yes


dump            xyz_form all xyz 100 dump.xyz
dump_modify     xyz_form sort id

timestep        ${dt_MD}
timestep        0.1

fix             1 all qeq/reaxff 1 0.0 10.0 1.0e-6 reaxff maxiter 400
fix             2 all nvt temp ${T0} ${T1} ${Tdamp}
fix             2 all nvt temp 300 ${T1} ${Tdamp}
fix             2 all nvt temp 300 300 ${Tdamp}
fix             2 all nvt temp 300 300 10
fix             3 all efield 1.0e+0 0.0 0.0
fix             4 all wall/reflect xlo EDGE xhi EDGE
run             40000

CITE-CITE-CITE-CITE-CITE-CITE-CITE-CITE-CITE-CITE-CITE-CITE-CITE

Your simulation uses code contributions which should be cited:

- pair reaxff command: doi:10.1016/j.parco.2011.08.005

@Article{Aktulga12,
 author = {H. M. Aktulga and J. C. Fogarty and S. A. Pandit and A. Y. Grama},
 title = {Parallel Reactive Molecular Dynamics: {N}umerical Methods and Algorithmic Techniques},
 journal = {Parallel Computing},
 year =    2012,
 volume =  38,
 number =  {4--5},
 pages =   {245--259}
}

- fix qeq/reaxff command: doi:10.1016/j.parco.2011.08.005

@Article{Aktulga12,
 author = {H. M. Aktulga and J. C. Fogarty and S. A. Pandit and A. Y. Grama},
 title = {Parallel Reactive Molecular Dynamics: {N}umerical Methods and Algorithmic Techniques},
 journal = {Parallel Computing},
 year =    2012,
 volume =  38,
 pages =   {245--259}
}

CITE-CITE-CITE-CITE-CITE-CITE-CITE-CITE-CITE-CITE-CITE-CITE-CITE

Neighbor list info ...
  update: every = 10 steps, delay = 0 steps, check = no
  max neighbors/atom: 2000, page size: 100000
  master list distance cutoff = 12
  ghost atom cutoff = 12
  binsize = 6, bins = 4 2 44
  3 neighbor lists, perpetual/occasional/extra = 3 0 0
  (1) pair reax/c, perpetual
      attributes: half, newton off, ghost
      pair build: half/bin/newtoff/ghost
      stencil: full/ghost/bin/3d
      bin: standard
  (2) fix qeq/reax, perpetual, copy from (1)
      attributes: half, newton off
      pair build: copy
      stencil: none
      bin: none
  (3) fix qeq/reaxff, perpetual, copy from (1)
      attributes: half, newton off
      pair build: copy
      stencil: none
      bin: none
Per MPI rank memory allocation (min/avg/max) = 54.51 | 55.76 | 57.27 Mbytes
   Step          Temp          E_pair         TotEng         Press           Fmax          Fnorm         Density         Volume    
         0   0             -493442.04     -493442.04     -2909.7855      257.5145       3753.2399      2.1701757      39978.056    
        20   82.96639      -494522.44     -493406.84      11045.454      215.72639      2674.0148      2.1699664      39981.911    
        40   139.18044     -495185.57     -493314.09     -6868.4237      143.84645      2129.0698      2.1701605      39978.336    
        60   163.68266     -495405.41     -493204.46     -6742.8059      159.90348      2611.7282      2.1702068      39977.483    
        80   174.53207     -495451.62     -493104.78      12655.516      275.02874      2881.5359      2.1701441      39978.638    
       100   137.85254     -494871.21     -493017.58     -7021.8535      173.8844       2848.0615      2.1699052      39983.038    
       120   182.36057     -495344.53     -492892.43     -9912.006       178.98446      2647.3003      2.1698474      39984.104    
       140   182.48605     -495196.56     -492742.77      9307.1304      229.94624      2975.2982      2.1699116      39982.92     
       160   178.73227     -495020.4      -492617.09     -10560.99       222.19606      2898.4904      2.1702871      39976.003    
       180   197.53793     -495159.5      -492503.32     -3179.3483      256.2412       2779.7959      2.1707226      39967.983    
       200   176.34103     -494765.25     -492394.09     -2648.3702      245.21007      3170.0681      2.1712572      39958.142    
       220   225.5115      -495280.22     -492247.9      -2041.2679      222.44382      2748.5264      2.1719974      39944.525    
       240   225.49573     -495095.38     -492063.27     -2974.222       255.84972      2900.756       2.172657       39932.399    
       260   213.46802     -494763.12     -491892.74     -4693.8086      223.63651      3087.7037      2.1729002      39927.929    
       280   244.1221      -495027.03     -491744.46     -12455.175      283.61331      2906.2656      2.1728334      39929.156    
       300   237.30362     -494806.55     -491615.66     -2559.4268      221.11456      3162.5121      2.1723779      39937.529    
       320   274.84389     -495159.7      -491464.03      4141.3126      279.66707      3037.1663      2.1708103      39966.369    
       340   279.70694     -495033.74     -491272.67     -4254.8872      195.91273      2925.3626      2.1699764      39981.727    
       360   275.22109     -494790.01     -491089.26     -2549.0177      222.21424      3137.2127      2.1707004      39968.392    
       380   308.44624     -495061.01     -490913.51     -7501.5888      230.08638      3065.9525      2.1715696      39952.395    
       400   304.49142     -494863.16     -490768.84     -7278.4097      246.47942      3252.1723      2.170256       39976.576    
       420   331.87525     -495094.09     -490631.55     -8404.8123      239.84937      2925.4388      2.1702397      39976.876    
       440   324.71361     -494862.15     -490495.91      328.97829      284.01369      3134.0276      2.1711222      39960.626    
       460   305.70467     -494495.91     -490385.27     -831.93628      299.65935      3249.1743      2.1708814      39965.059    
       480   311.97774     -494505.35     -490310.36     -7316.4394      224.21871      3156.7384      2.1699689      39981.866    
       500   304.32782     -494366.68     -490274.56     -3395.9477      234.74521      3277.5709      2.1701798      39977.981    
       520   337.60743     -494788.64     -490249.02     -9823.9322      540.94089      3169.3825      2.1711753      39959.65     
       540   354.61385     -495007.86     -490239.56     -7117.4775      300.68081      2965.1946      2.1701891      39977.809    
       560   349.65873     -494966.56     -490264.9      -7849.8452      276.80383      3044.9861      2.1703196      39975.405    
       580   346.62688     -494991.34     -490330.44     -13588.125      281.46511      2916.1396      2.1706952      39968.488    
       600   320.42112     -494721.21     -490412.69     -6795.3894      288.64818      3144.5903      2.1697954      39985.062    
       620   324.33539     -494843.22     -490482.06     -6721.4996      292.1493       3096.1786      2.1705448      39971.257    
       640   320.96188     -494842.21     -490526.41     -5941.9939      290.10787      2956.2654      2.1702431      39976.814    
       660   311.85984     -494741.41     -490548         924.92685      297.9769       3128.1226      2.1704414      39973.162    
       680   304.9945      -494668.35     -490567.26     -7339.2063      282.88312      3152.9823      2.1700667      39980.063    
       700   297.6339      -494589.12     -490587        -9365.1109      426.19629      3143.736       2.1703196      39975.405    
       720   324.37837     -494960.46     -490598.73     -7167.9914      292.91361      2942.3505      2.1697124      39986.593    
       740   327.70786     -495024.82     -490618.32     -9574.7258      363.07426      3003.8094      2.1700177      39980.966    
       760   323.84528     -494986.24     -490631.68     -660.43574      374.71039      2957.1516      2.1697156      39986.533    
       780   312.46755     -494855.21     -490653.63     -9099.7667      205.28765      2865.5354      2.1697892      39985.177    
       800   297.75024     -494694.25     -490690.57     -10724.136      369.94404      3068.9978      2.1698642      39983.794    
       820   309.86091     -494898.72     -490732.2      -2815.9393      285.44684      2925.7273      2.169716       39986.526    
       840   307.37882     -494898.23     -490765.08     -8842.5101      196.11641      2893.0091      2.1698124      39984.749    
       860   308.71468     -494935.84     -490784.73     -2377.1921      304.8689       2962.7784      2.1697378      39986.124    
       880   302.54771     -494882.83     -490814.65     -6871.1681      269.9991       2942.2907      2.1697197      39986.457    
       900   293.32586     -494795.78     -490851.59     -13346.418      236.5971       2977.572       2.169695       39986.913    
       920   302.10096     -494933.91     -490871.73     -10302.386      303.46333      2884.0984      2.1697141      39986.56     
       940   294.14891     -494837.75     -490882.5      -4575.3837      227.99446      2889.133       2.1697816      39985.316    
       960   295.13895     -494843.67     -490875.1      -10359.957      254.53786      2898.0798      2.1697288      39986.29     
       980   293.50674     -494801.21     -490854.59     -5948.0908      375.53471      3011.0188      2.1697798      39985.35     
      1000   293.37763     -494779.25     -490834.37     -9497.8277      285.09738      2935.3796      2.1698364      39984.307    
      1020   302.33483     -494888.96     -490823.63     -6713.8297      352.97063      2998.3653      2.1696966      39986.883    
      1040   295.2459      -494783.37     -490813.36     -8315.1315      226.32508      2992.1825      2.1697778      39985.387    
      1060   298.09147     -494800.19     -490791.92     -6173.2508      220.13747      2986.98        2.1696895      39987.013    
      1080   296.66085     -494760.09     -490771.06     -11269.523      349.64491      2960.3465      2.1697417      39986.052    
      1100   295.43165     -494733.88     -490761.38     -14197.025      255.43657      3018.9844      2.1697527      39985.849    
      1120   309.86679     -494923.44     -490756.84     -11432.464      243.94629      2920.8383      2.1701915      39977.764    
      1140   311.72105     -494943.06     -490751.53     -8217.305       325.09115      2991.0555      2.1698363      39984.308    
      1160   313.4131      -494984.83     -490770.54     -4002.9832      358.53797      2953.1473      2.1697309      39986.251    
      1180   308.34235     -494942.38     -490796.28     -4897.3527      259.36476      2906.1886      2.1697971      39985.03     
      1200   298.58587     -494857.35     -490842.44     -7683.6126      267.39395      2985.2527      2.1697291      39986.283    
      1220   299.38555     -494914.83     -490889.16     -9982.3274      358.08639      2878.4912      2.1698876      39983.362    
      1240   289.18355     -494806.4      -490917.92     -10114.399      281.26743      2913.0816      2.1698139      39984.722    
      1260   281.74852     -494727        -490938.49     -6689.4957      267.90345      2910.9399      2.1697258      39986.345    
      1280   277.12764     -494665.69     -490939.31     -2035.8054      288.50255      3045.5116      2.1698431      39984.184    
      1300   276.31203     -494645.99     -490930.58     -9561.657       256.3952       2914.5409      2.1697338      39986.197    
      1320   289.38233     -494778.64     -490887.48     -8459.9054      253.37441      2777.7609      2.16982        39984.609    
      1340   287.84159     -494702.47     -490832.02     -2613.6826      265.3142       3011.206       2.1698162      39984.679    
      1360   292.42806     -494695.89     -490763.77     -10674.165      209.71732      2860.9728      2.1697662      39985.601    
      1380   296.75007     -494691.56     -490701.33     -8963.3759      193.28862      2880.4476      2.1698448      39984.151    
      1400   297.23263     -494638.52     -490641.8      -8702.0667      217.78718      2947.0341      2.169738       39986.121    
      1420   306.53533     -494705.14     -490583.34     -10749.285      261.16214      2862.8165      2.1698305      39984.415    
      1440   303.15119     -494596.69     -490520.38     -6749.6125      190.77923      2891.221       2.1697322      39986.226    
      1460   301.92094     -494530.58     -490470.82     -10156.33       230.1282       2920.5428      2.1697545      39985.816    
      1480   306.14637     -494547.13     -490430.55     -7017.003       237.53736      2943.715       2.1697839      39985.274    
      1500   306.95235     -494533.51     -490406.1      -7215.9062      289.15814      2978.343       2.1699489      39982.234    
      1520   308.8114      -494535.29     -490382.88     -13118.404      372.60124      2977.8809      2.1698794      39983.514    
      1540   300.52278     -494411.9      -490370.94     -13417.015      255.06515      2988.9945      2.169776       39985.419    
      1560   302.83167     -494414.71     -490342.7      -9749.4467      338.09044      2954.5814      2.1697702      39985.527    
      1580   307.95143     -494484.96     -490344.11     -8479.7462      260.32819      2821.7816      2.1698906      39983.307    
      1600   310.67145     -494520.5      -490343.08     -14057.944      252.04595      2890.7372      2.1696846      39987.105    
      1620   315.47687     -494595.73     -490353.69     -11147.756      267.99553      2816.6638      2.1697478      39985.939    
      1640   309.55621     -494548.5      -490386.07     -10591.455      182.82942      2862.8749      2.1698658      39983.765    
      1660   307.80768     -494550.66     -490411.75     -11495.525      301.98909      2882.382       2.1699371      39982.451    
      1680   306.07035     -494565.32     -490449.77     -14332.604      212.61999      2811.6801      2.1697175      39986.497    
      1700   302.92029     -494570.65     -490497.46     -15731.596      219.62577      2771.5726      2.169757       39985.771    
      1720   295.64115     -494528.78     -490553.46     -16556.644      217.72994      2813.1336      2.1697304      39986.26     
      1740   286.55427     -494455.47     -490602.33     -11165.009      251.10372      2887.9809      2.169726       39986.342    
      1760   286.03341     -494467.66     -490621.53     -10425.052      188.51949      2868.5467      2.1697617      39985.683    
      1780   285.62145     -494469.5      -490628.91     -8320.2337      266.84585      2955.3233      2.1697388      39986.106    
      1800   287.52091     -494498.27     -490632.14     -13175.959      219.09801      2857.3382      2.1696762      39987.26     
      1820   294.30794     -494584.88     -490627.49     -13235.796      204.41204      2822.8678      2.1697194      39986.463    
      1840   299.54057     -494645.88     -490618.13     -15911.616      251.83471      2797.5658      2.1697438      39986.013    
      1860   301.06912     -494644.61     -490596.31     -17082.172      285.47385      2797.992       2.1697646      39985.629    
      1880   291.08592     -494485.14     -490571.07     -13658.9        381.45756      2926.8593      2.169766       39985.603    
      1900   285.91741     -494382.41     -490537.84     -11411.553      376.89584      2988.4966      2.1697276      39986.312    
      1920   283.5999      -494322.37     -490508.96     -13647.844      227.17026      2997.241       2.1696688      39987.396    
      1940   286.75839     -494314.83     -490458.95     -7820.606       227.69674      3010.7373      2.1697857      39985.242    
      1960   292.68461     -494327.04     -490391.47     -13182.654      231.08405      2901.2763      2.1698365      39984.305    
      1980   291.37976     -494246.65     -490328.63     -10251.637      220.42037      2953.9611      2.1697569      39985.771    
      2000   292.4037      -494186.17     -490254.39     -10129.369      198.04574      2922.5056      2.1697606      39985.703    
      2020   292.90247     -494109.24     -490170.75     -15007.475      225.64101      2972.0827      2.1696838      39987.12     
      2040   296.87816     -494094.02     -490102.07     -12644.363      194.71456      2978.2445      2.1697573      39985.764    
      2060   303.78322     -494120.45     -490035.65     -14927.191      268.36702      2944.7426      2.1698379      39984.279    
      2080   302.39055     -494030.79     -489964.72     -14088.598      247.74232      2990.9644      2.1696629      39987.505    
      2100   304.62552     -493997.25     -489901.12     -13979.371      278.91761      3019.4611      2.169701       39986.802    
      2120   300.93231     -493901.54     -489855.07     -12045.561      315.12618      3133.2504      2.1697095      39986.645    
      2140   300.48082     -493840.49     -489800.09     -14987.293      259.33713      3026.7708      2.1698193      39984.621    
      2160   300.26216     -493777.47     -489740.01     -15799.682      242.16816      3061.3727      2.1697519      39985.864    
      2180   296.6812      -493680.07     -489690.76     -9451.7314      284.9689       3173.4932      2.1698249      39984.519    
      2200   300.94008     -493684.57     -489638        -13657.271      244.92611      3154.1392      2.1697645      39985.631    
      2220   299.27985     -493613.62     -489589.38     -13527.652      249.42177      3126.4697      2.1697415      39986.056    
      2240   300.33649     -493569.46     -489531.01     -6137.0297      237.18895      3141.4314      2.1697659      39985.606    
      2260   302.41473     -493542.37     -489475.97     -11743.185      254.4654       3130.2872      2.1697172      39986.503    
      2280   303.41534     -493501.3      -489421.45     -3377.8219      304.42012      3311.5753      2.1699589      39982.049    
      2300   313.38734     -493584.96     -489371.02     -10507.972      434.9456       3155.7954      2.1697523      39985.856    
      2320   312.61014     -493533.42     -489329.93     -8506.7621      459.4368       3255.564       2.1699165      39982.831    
      2340   308.18815     -493448.54     -489304.51     -12791.924      416.23612      3252.8217      2.1698764      39983.571    
      2360   308.98481     -493440.79     -489286.04     -6541.6337      327.27213      3192.896       2.169706       39986.709    
      2380   306.86609     -493408.52     -489282.27     -10533.626      323.98319      3195.4962      2.1698774      39983.552    
      2400   309.66722     -493449.81     -489285.89     -10015.252      414.21611      3195.7658      2.1696999      39986.822    
      2420   309.53544     -493464.13     -489301.98     -11804.773      234.1415       3045.3947      2.1697483      39985.929    
      2440   309.60223     -493475.14     -489312.09     -9438.3573      344.59162      3180.0241      2.1697328      39986.215    
      2460   310.86553     -493525.02     -489344.98     -7955.5863      321.57728      3134.5931      2.1697938      39985.093    
      2480   303.19121     -493457.98     -489381.14     -10339.641      300.92916      3200.1851      2.1697829      39985.292    
      2500   300.2833      -493448.05     -489410.31     -6171.7084      375.0348       3228.2196      2.1697664      39985.596    
      2520   298.91779     -493467.54     -489448.16     -9991.8128      289.63002      3142.5123      2.1697091      39986.653    
      2540   293.20366     -493419.8      -489477.25     -12939.202      262.29293      3139.7045      2.1697652      39985.619    
      2560   293.17021     -493432.76     -489490.67     -2402.7667      760.92275      3426.7516      2.1697555      39985.798    
      2580   289.06606     -493377.68     -489490.77     -12421.696      648.78403      3297.824       2.1697063      39986.704    
      2600   287.35184     -493347.94     -489484.09     -7792.1185      254.8106       3133.2037      2.1697158      39986.529    
      2620   289.43269     -493362.01     -489470.17     -303.49065      329.11028      3204.6097      2.1697138      39986.566    
      2640   292.95904     -493382.92     -489443.67     -12803.593      262.50411      3135.866       2.1697289      39986.288    
      2660   301.47838     -493465.94     -489412.13     -5519.782       372.82686      3183.1532      2.1696831      39987.132    
      2680   302.94939     -493431.07     -489357.48     -9393.6469      316.64067      3106.7173      2.1697254      39986.352    
      2700   303.60917     -493412.22     -489329.76     -10423.306      295.09831      3143.8507      2.1696647      39987.471    
      2720   303.89371     -493396.39     -489310.11      1404.008       320.13224      3300.1284      2.1696699      39987.374    
      2740   304.84931     -493395.12     -489295.99     -3844.9613      294.14323      3203.4371      2.1698015      39984.951    
      2760   306.55564     -493410.89     -489288.81     -5372.076       368.17601      3147.5419      2.1696885      39987.033    
      2780   297.81984     -493289.94     -489285.32     -2682.9309      322.21538      3268.7545      2.1696915      39986.976    
      2800   297.41138     -493257.57     -489258.45     -9806.1048      369.06666      3228.7309      2.1696835      39987.124    
      2820   298.80199     -493271.03     -489253.21     -7894.2601      352.02955      3207.4953      2.1696871      39987.057    
      2840   298.5119      -493275.77     -489261.85     -6356.6315      272.50925      3146.7972      2.1697114      39986.61     
      2860   292.68192     -493212.24     -489276.71     -2654.3227      327.09941      3295.5913      2.1697631      39985.658    
      2880   288.2163      -493131.42     -489255.93     -5742.8917      305.67243      3312.013       2.1696663      39987.442    
      2900   290.12884     -493131.55     -489230.35     -5808.3779      226.38285      3216.9961      2.1697229      39986.398    
      2920   291.55731     -493128.64     -489208.24     -3256.9024      323.59952      3253.7632      2.1698065      39984.858    
      2940   294.89026     -493126.08     -489160.86     -9261.3785      263.1564       3164.0809      2.1697238      39986.382    
      2960   294.22057     -493072.31     -489116.09     -5531.3691      416.5563       3224.664       2.1697446      39985.998    
      2980   290.86586     -492967.74     -489056.63     -7819.2445      243.22717      3254.4212      2.1697459      39985.975    
      3000   298.47246     -493010.47     -488997.08     -6512.5556      274.68979      3305.4745      2.1697675      39985.577    
      3020   303.3038      -493025.85     -488947.5      -2373.2196      592.26906      3418.9533      2.1697496      39985.906    
      3040   304.81718     -492994.9      -488896.19     -1005.9858      315.24691      3280.3112      2.1698939      39983.248    
      3060   300.51101     -492904.3      -488863.5      -6526.0401      261.69145      3376.4003      2.1698399      39984.243    
      3080   305.77694     -492945.6      -488833.99     -7726.567       390.85393      3366.0218      2.1696977      39986.862    
      3100   310.1091      -492991.77     -488821.91     -8652.5057      570.03315      3424.765       2.1697577      39985.757    
      3120   310.60268     -492992.66     -488816.16      196.56826      519.96161      3510.9108      2.169792       39985.125    
      3140   312.79766     -493009.39     -488803.38      873.44571      354.23769      3381.1848      2.1697584      39985.744    
      3160   301.07912     -492859.95     -488811.51     -2656.5864      311.02588      3370.3462      2.1697429      39986.029    
      3180   294.63366     -492791.53     -488829.76     -8775.6772      388.03828      3401.4691      2.1697699      39985.532    
      3200   296.33563     -492826.77     -488842.11     -1092.3331      571.99673      3514.1218      2.1697541      39985.824    
      3220   295.70645     -492823.25     -488847.05     -5836.1996      441.65902      3384.903       2.1697783      39985.377    
      3240   298.39022     -492862.92     -488850.63     -3406.4854      260.67542      3237.2718      2.1697517      39985.867    
      3260   296.08828     -492820.46     -488839.13     -3718.5348      294.69223      3342.1219      2.1697249      39986.361    
      3280   296.02497     -492810.06     -488829.58     -10233.066      386.00961      3330.1253      2.1696928      39986.954    
      3300   300.32793     -492869.81     -488831.47     -11983.221      234.98677      3191.5454      2.1697405      39986.074    
      3320   299.38341     -492868.95     -488843.31     -13008.329      217.05948      3208.0633      2.1697064      39986.703    
      3340   305.3526      -492940.9      -488834.99     -10334.244      460.03088      3248.952       2.1696749      39987.282    
      3360   305.04947     -492929.33     -488827.5      -9566.0108      325.74575      3194.6859      2.1697501      39985.897    
      3380   303.33196     -492909.59     -488830.86     -10099.758      268.02641      3220.8403      2.1697192      39986.467    
      3400   305.42149     -492958.72     -488851.89     -9652.8766      439.18831      3316.1171      2.1697982      39985.011    
      3420   304.0184      -492970.52     -488882.56     -11826.867      276.28333      3202.2097      2.1697215      39986.424    
      3440   303.57223     -492995.79     -488913.83     -10612.219      228.08841      3149.521       2.1697729      39985.476    
      3460   295.99412     -492911.26     -488931.19     -8173.467       261.5601       3273.9597      2.1696861      39987.077    
      3480   292.36627     -492879.4      -488948.12     -12761.812      236.34815      3261.799       2.1696735      39987.309    
      3500   295.91665     -492956.43     -488977.41     -4941.0826      274.5822       3203.8094      2.1697563      39985.784    
      3520   295.50204     -492967.46     -488994.01     -10105.143      266.06249      3180.5436      2.1697192      39986.467    
      3540   298.3266      -493002.31     -488990.88     -8663.4712      249.94417      3144.1455      2.1697052      39986.725    
      3560   298.6609      -492997.8      -488981.88     -8078.4157      388.14639      3202.016       2.169712       39986.599    
      3580   297.83225     -492970.39     -488965.61     -13953.313      243.21863      3281.8279      2.1697329      39986.215    
      3600   305.07411     -493060.99     -488958.83     -9805.2428      230.37643      3184.239       2.1697226      39986.403    
      3620   301.71366     -493020.48     -488963.51     -7536.9996      290.57471      3230.5455      2.1697147      39986.549    
      3640   299.35373     -493003.44     -488978.2      -13060.295      222.2116       3146.6412      2.1696838      39987.119    
      3660   295.41402     -492953.58     -488981.31     -15016.722      283.46636      3203.6049      2.1697147      39986.55     
      3680   297.70136     -492979.82     -488976.8      -10446.815      271.8106       3243.5127      2.1698587      39983.895    
      3700   304.70529     -493080.85     -488983.65     -8541.4523      368.47944      3274.8313      2.1698206      39984.597    
      3720   306.53093     -493111.01     -488989.27     -10266.835      239.09929      3200.6218      2.169897       39983.189    
      3740   310.39567     -493160.51     -488986.8      -7405.7586      275.33526      3274.3857      2.1699003      39983.129    
      3760   308.41256     -493149.13     -489002.08     -8566.5373      359.99369      3345.3915      2.1698022      39984.937    
      3780   307.99768     -493157.45     -489015.98     -11325.549      224.36636      3288.8588      2.1698639      39983.8      
      3800   307.10232     -493187.72     -489058.29     -18256.914      311.00771      3289.6004      2.1696764      39987.254    
      3820   304.55263     -493202.23     -489107.08     -8475.4094      304.8874       3230.1645      2.1696877      39987.048    
      3840   302.56102     -493216.52     -489148.15     -11097.302      273.4068       3210.0282      2.1697768      39985.404    
      3860   297.66447     -493185.19     -489182.67     -15045.405      222.2346       3177.8789      2.1696822      39987.149    
      3880   295.23529     -493183.48     -489213.62     -12063.63       380.3856       3309.9368      2.1697519      39985.865    
      3900   297.22323     -493234.34     -489237.75     -16084.15       334.07076      3201.2987      2.1698149      39984.702    
      3920   294.60245     -493211.69     -489250.34     -14685.492      255.60698      3113.909       2.1697277      39986.31     
      3940   292.01211     -493193.85     -489267.33     -13567.314      264.69809      3254.6589      2.1697957      39985.057    
      3960   296.44736     -493268.15     -489281.99     -12695.733      256.05923      3199.7085      2.1698266      39984.487    
      3980   301.36464     -493339.17     -489286.89     -10787.983      384.08737      3145.6409      2.16979        39985.162    
      4000   304.69443     -493388.42     -489291.37     -8335.1225      286.72786      3144.1564      2.1697775      39985.393    
      4020   300.32403     -493347.88     -489309.59     -14266.375      329.37089      3213.8668      2.1696947      39986.918    
      4040   300.93096     -493385.37     -489338.93     -11702.158      241.30865      3104.3787      2.1697079      39986.674    
      4060   300.58174     -493396.07     -489354.32     -12958.063      268.25133      3107.3888      2.1697956      39985.059    
      4080   295.07407     -493333.21     -489365.52     -10896.195      293.31521      3201.872       2.1697486      39985.925    
      4100   295.70934     -493348.14     -489371.91     -13943.563      271.22574      3153.7912      2.1697707      39985.518    
      4120   295.24669     -493350.05     -489380.03     -15647.785      244.36296      3113.7724      2.1697022      39986.78     
      4140   293.82826     -493326.65     -489375.71     -11948.723      367.50696      3238.6595      2.1696843      39987.11     
      4160   297.58863     -493372.17     -489370.66     -15533.549      224.23242      3170.6561      2.1697149      39986.547    
      4180   301.29904     -493411.93     -489360.53     -8701.9413      334.04827      3166.1911      2.1697682      39985.564    
      4200   301.92436     -493416.22     -489356.41     -11018.042      401.31836      3311.5988      2.1698649      39983.781    
      4220   301.96458     -493414.86     -489354.52     -11196.903      297.2266       3152.5793      2.1697902      39985.159    
      4240   298.01311     -493365.17     -489357.95     -12863.386      366.49553      3173.2983      2.1697676      39985.574    
      4260   300.73614     -493394        -489350.17     -7148.9786      410.95889      3270.1322      2.1698226      39984.561    
      4280   301.29843     -493397.69     -489346.3      -14583.121      269.78649      3177.502       2.1696873      39987.054    
      4300   304.96411     -493444.56     -489343.88     -9998.9074      235.58544      3058.3001      2.1696708      39987.359    
      4320   301.3174      -493394.96     -489343.32     -6018.8247      240.20276      3186.2645      2.1697382      39986.116    
      4340   298.25757     -493360        -489349.5      -14405.899      263.42338      3154.5791      2.169738       39986.12     
      4360   299.51043     -493381.45     -489354.1      -13341.478      275.07913      3150.5017      2.1696974      39986.868    
      4380   297.12727     -493349.94     -489354.64     -14636.65       332.16397      3221.8415      2.1698664      39983.753    
      4400   304.18261     -493446.33     -489356.15     -12446.59       329.30167      3121.6629      2.1697548      39985.81     
      4420   305.55842     -493462.56     -489353.89     -13888.629      265.20717      3124.5503      2.1696936      39986.938    
      4440   305.01057     -493462.24     -489360.93     -15851.453      239.25932      3088.7569      2.1697059      39986.711    
      4460   303.02156     -493458.03     -489383.47     -16610.5        243.78537      3119.9756      2.169716       39986.526    
      4480   296.05724     -493396.81     -489415.89     -11949.24       457.15604      3341.4036      2.1697602      39985.711    
      4500   297.21747     -493436.28     -489439.77     -10866.116      299.76977      3117.6175      2.1696664      39987.44     
      4520   295.66362     -493423.92     -489448.3      -9058.2168      304.34261      3235.4811      2.1696615      39987.531    
      4540   297.58471     -493456.93     -489455.48     -5146.3013      314.92314      3175.5295      2.1696838      39987.119    
      4560   297.39731     -493464.2      -489465.26     -13841.517      199.53293      3087.7889      2.1697774      39985.394    
      4580   293.05408     -493417.63     -489477.09     -9010.5521      209.58897      3123.5302      2.1697299      39986.269    
      4600   295.66244     -493438.84     -489463.24     -10126.137      211.3962       3091.0846      2.1697397      39986.088    
      4620   298.86717     -493462.57     -489443.87     -10328.779      220.73951      3070.1408      2.1697571      39985.769    
      4640   298.03867     -493437.41     -489429.85     -12800.145      221.28017      3129.9886      2.1698022      39984.938    
      4660   300.46746     -493467.48     -489427.26     -10794.693      275.19396      3138.9451      2.1696645      39987.474    
      4680   302.91898     -493497.23     -489424.05     -10179.862      251.13552      3124.3509      2.1696586      39987.584    
      4700   302.52566     -493490.67     -489422.78     -13763.55       287.8131       3157.8346      2.1697412      39986.061    
      4720   301.80476     -493477.55     -489419.36     -6778.3595      259.77964      3163.0788      2.1697317      39986.236    
      4740   298.80689     -493433.51     -489415.62     -15503.83       290.7989       3193.4648      2.1696696      39987.38     
      4760   298.78703     -493439.65     -489422.03     -17279.83       273.29394      3196.0664      2.1697317      39986.237    
      4780   302.93667     -493489.95     -489416.53     -11578.709      474.81279      3268.7457      2.1696733      39987.312    
      4800   304.38676     -493515.23     -489422.32     -16486.409      248.76876      3106.2332      2.1696981      39986.855    
      4820   299.77366     -493452.31     -489421.42     -15031.54       223.50106      3164.7041      2.1696759      39987.265    
      4840   296.29196     -493413.93     -489429.86     -7741.3746      321.75014      3174.7997      2.1697168      39986.511    
      4860   301.76554     -493488.21     -489430.54     -13425.33       173.74564      3132.0337      2.1696737      39987.306    
      4880   306.655       -493556.13     -489432.72     -14566.109      275.15178      3113.6641      2.169672       39987.337    
      4900   305.43204     -493540.09     -489433.12     -8326.3854      224.10938      3198.372       2.1697174      39986.5      
      4920   299.44507     -493471.09     -489444.62     -16356.25       206.65747      3168.7998      2.1697499      39985.901    
      4940   295.73921     -493428.16     -489451.52     -9086.0015      240.8329       3188.319       2.1697109      39986.619    
      4960   296.57207     -493454.78     -489466.94     -9604.8694      264.47265      3202.3192      2.1696681      39987.408    
      4980   300.44797     -493515.39     -489475.43     -12642.136      282.32981      3221.7015      2.1698054      39984.878    
      5000   300.86815     -493521.65     -489476.04     -6822.618       391.24159      3274.3356      2.1697046      39986.737    
      5020   299.28048     -493515.62     -489491.36     -11137.656      207.41006      3191.1863      2.1697283      39986.299    
      5040   300.00115     -493532.5      -489498.55     -14298.062      248.17271      3164.9184      2.1697194      39986.463    
      5060   303.0637      -493585.28     -489510.16     -14261.74       430.39214      3145.8058      2.1697124      39986.592    
      5080   304.47279     -493622.31     -489528.24     -9646.9566      312.41083      3179.2899      2.1697112      39986.614    
      5100   301.54513     -493594.11     -489539.4      -13278.367      279.17706      3126.5413      2.1696964      39986.887    
      5120   300.94616     -493587.08     -489540.43     -11401.442      434.09444      3246.7444      2.1697342      39986.189    
      5140   299.30179     -493584.46     -489559.92     -16546.595      222.15256      3134.5355      2.1696658      39987.45     
      5160   295.18661     -493548.56     -489579.35     -16066.042      278.25806      3167.3192      2.1697156      39986.533    
      5180   295.75534     -493577.31     -489600.45     -7981.1673      262.72644      3173.2836      2.1697495      39985.908    
      5200   296.58172     -493588.02     -489600.06     -17459.359      179.07341      3077.5683      2.1698243      39984.53     
      5220   297.00018     -493594.07     -489600.47     -14679.188      217.50376      3105.1055      2.1697743      39985.451    
      5240   297.77956     -493596.15     -489592.07     -12763.586      294.06485      3260.5951      2.169712       39986.599    
      5260   301.87442     -493634.09     -489574.96     -16217.577      234.54         3177.1579      2.1697188      39986.474    
      5280   303.52658     -493658.34     -489576.99     -16836.008      277.57035      3185.1094      2.1697088      39986.659    
      5300   304.09541     -493670.48     -489581.48     -14581.44       323.27014      3234.4904      2.1697051      39986.726    
      5320   306.73291     -493710.22     -489585.75     -9384.2216      272.56671      3206.0135      2.1697157      39986.532    
      5340   308.58719     -493741.82     -489592.42     -11913.586      214.64871      3096.3678      2.1697524      39985.855    
      5360   304.17339     -493698.12     -489608.07     -11128.397      266.07529      3191.792       2.1697268      39986.327    
      5380   301.44573     -493696.98     -489643.61     -11316.139      254.8485       3150.6396      2.1697217      39986.42     
      5400   297.91841     -493690.96     -489685.02     -11813.624      221.69254      3120.9525      2.1697131      39986.58     
      5420   296.34399     -493685.1      -489700.33     -12146.293      323.3325       3240.2123      2.1696918      39986.971    
      5440   298.61844     -493729.73     -489714.38     -7437.6007      371.29657      3221.3499      2.1697429      39986.03     
      5460   299.90693     -493764.04     -489731.36     -15027.099      339.73811      3182.4591      2.1697398      39986.087    
      5480   300.9987      -493805.77     -489758.41     -12898.364      268.30027      3138.076       2.1697268      39986.327    
      5500   299.36347     -493804.93     -489779.56     -10804.971      320.42022      3203.3046      2.1697152      39986.541    
      5520   296.28423     -493773.37     -489789.4      -9907.0373      254.59577      3182.1772      2.1696973      39986.869    
      5540   299.4332      -493814.59     -489788.29     -19916.407      230.65992      3084.6348      2.169717       39986.507    
      5560   298.53903     -493801.65     -489787.37     -15210.724      302.05418      3165.7458      2.1697747      39985.444    
      5580   298.02643     -493815.59     -489808.19     -13160.727      300.28236      3186.7188      2.1697241      39986.376    
      5600   297.82534     -493835.34     -489830.65     -19947.994      210.75569      3056.3503      2.1697723      39985.489    
      5620   290.59041     -493746.2      -489838.8      -15118.828      313.57029      3131.6164      2.1698045      39984.894    
      5640   287.47446     -493690.57     -489825.06     -12694.695      310.23978      3198.2116      2.1698257      39984.503    
      5660   290.11261     -493702.91     -489801.93     -12847.146      266.23818      3179.3595      2.1697227      39986.403    
      5680   295.26672     -493744.58     -489774.29     -12751.674      296.68743      3236.3928      2.1697104      39986.629    
      5700   301.00582     -493789.18     -489741.72     -11848.913      374.76387      3189.0476      2.169865       39983.78     
      5720   300.46124     -493764.72     -489724.59     -9116.6848      278.44465      3275.5988      2.1697648      39985.627    
      5740   302.32187     -493760.03     -489694.88     -10932.173      574.08746      3382.4876      2.1697389      39986.104    
      5760   303.88697     -493750.29     -489664.1      -17452.578      303.4115       3215.4708      2.1697242      39986.374    
      5780   304.26958     -493745.65     -489654.31     -13196.39       409.87843      3367.0828      2.1697124      39986.591    
      5800   302.74828     -493728.6      -489657.72     -10951.217      367.6423       3319.3371      2.1699151      39982.857    
      5820   302.3944      -493725.75     -489659.62     -9168.8922      290.50431      3299.2538      2.1697237      39986.384    
      5840   303.16108     -493722.69     -489646.25     -12939.063      233.27714      3240.4385      2.1698835      39983.439    
      5860   304.89532     -493727        -489627.24     -8892.2457      291.28924      3234.1374      2.16973        39986.268    
      5880   303.16916     -493711.16     -489634.62     -13343.016      253.33781      3211.9173      2.1698274      39984.472    
      5900   300.81598     -493705.19     -489660.29     -18780.172      173.49264      3196.798       2.1699757      39981.74     
      5920   303.34403     -493752.34     -489673.44     -6397.3364      270.80602      3235.2829      2.1696723      39987.331    
      5940   303.28517     -493752.09     -489673.99     -11887.398      344.62713      3225.8498      2.1697277      39986.309    
      5960   302.73992     -493756.06     -489685.28     -12682.872      329.78412      3241.8203      2.1697038      39986.751    
      5980   300.1918      -493746.95     -489710.44     -10835.658      372.89122      3262.8488      2.1696831      39987.132    
      6000   301.39326     -493785.61     -489732.95     -13344.052      352.39618      3188.3181      2.1697487      39985.922    
      6020   299.13584     -493767.46     -489745.15     -11017.788      214.06887      3164.6092      2.1697062      39986.706    
      6040   297.1325      -493747.31     -489751.93     -16299.038      296.71264      3163.0447      2.1696679      39987.411    
      6060   294.88825     -493721.45     -489756.25     -10097.086      258.18289      3165.5272      2.1697951      39985.068    
      6080   293.20546     -493700.78     -489758.21     -16993.073      284.92463      3185.4302      2.1697603      39985.71     
      6100   293.83985     -493725.29     -489774.19     -15451.154      585.45102      3347.4483      2.1696982      39986.853    
      6120   292.87285     -493707.76     -489769.67     -14145.678      261.5185       3217.0562      2.1697327      39986.218    
      6140   296.73092     -493738.85     -489748.88     -15266.71       313.9489       3179.4596      2.169686       39987.078    
      6160   298.95002     -493752.62     -489732.81     -10826.37       222.27297      3243.8007      2.1697464      39985.965    
      6180   300.25723     -493748.04     -489710.65     -12572.824      236.94577      3149.9685      2.1696799      39987.191    
      6200   300.82916     -493727.35     -489682.27     -15339.096      241.86043      3224.2213      2.1696893      39987.018    
      6220   303.34125     -493738.41     -489659.55     -11351.522      286.63356      3168.0295      2.1697749      39985.441    
      6240   302.02213     -493704.48     -489643.36     -4891.0784      358.9112       3272.1109      2.1697389      39986.104    
      6260   303.84423     -493713.97     -489628.35     -7848.4066      307.93425      3258.81        2.1697098      39986.639    
      6280   301.82264     -493676.89     -489618.45     -11372.507      406.33608      3332.9595      2.1697448      39985.995    
      6300   299.1456      -493647.16     -489624.72     -10429.024      268.27238      3252.7395      2.1697016      39986.79     
      6320   299.70126     -493653.29     -489623.38     -6065.9908      460.68467      3435.8684      2.1696967      39986.881    
      6340   299.87774     -493642.37     -489610.09     -11810.471      256.35741      3289.8175      2.1697053      39986.723    
      6360   303.73045     -493684.32     -489600.23     -9800.6997      270.05663      3299.916       2.1697899      39985.163    
      6380   306.38645     -493723.37     -489603.57     -14276.578      301.94795      3272.2094      2.1697655      39985.613    
      6400   304.09752     -493692.82     -489603.8      -16512.581      257.28631      3271.3013      2.1696634      39987.494    
      6420   300.924       -493659.22     -489612.86     -7385.7994      275.50637      3357.0297      2.169698       39986.856    
      6440   297.85738     -493630.65     -489625.53     -9567.86        323.45697      3320.8886      2.1696947      39986.919    
      6460   299.02568     -493660.02     -489639.19     -17835.446      260.38519      3295.592       2.1697133      39986.576    
      6480   302.86718     -493738.45     -489665.97     -12081.529      332.9573       3250.9721      2.1697122      39986.596    
      6500   297.4407      -493684.75     -489685.24     -9459.0317      269.63388      3230.1629      2.1696905      39986.995    
      6520   294.92729     -493662.89     -489697.17     -14445.122      316.84027      3287.2716      2.1696864      39987.071    
      6540   295.97073     -493694.99     -489715.24     -8020.845       246.78137      3214.4295      2.1696615      39987.53     
      6560   297.5221      -493728.01     -489727.4      -11610.145      283.5126       3213.0528      2.1697055      39986.718    
      6580   297.96231     -493750.23     -489743.7      -14840.876      331.38779      3192.3443      2.1697146      39986.552    
      6600   297.01022     -493744.15     -489750.42     -9306.2996      286.73599      3157.9873      2.1697477      39985.941    
      6620   295.86251     -493742.18     -489763.88     -9415.7205      331.1589       3183.7889      2.1697869      39985.218    
      6640   294.25204     -493730.77     -489774.13     -13196.789      267.64582      3186.4178      2.1697096      39986.644    
      6660   296.52339     -493762.14     -489774.96     -6822.0234      262.54905      3158.2111      2.1698161      39984.681    
      6680   298.37484     -493778.13     -489766.06     -8758.4708      316.94913      3345.1959      2.1696751      39987.279    
      6700   298.60287     -493761.48     -489746.34     -11353.385      315.53551      3305.0507      2.1696984      39986.851    
      6720   299.57816     -493754.91     -489726.65     -12374.899      407.19801      3337.9155      2.1699551      39982.12     
      6740   300.37489     -493742.64     -489703.67     -7680.3928      402.95469      3364.7008      2.1697116      39986.607    
      6760   301.3643      -493729.87     -489677.59     -14039.589      321.8291       3323.2502      2.1697553      39985.8      
      6780   304.81595     -493742.97     -489644.28     -9091.8957      328.49439      3295.0945      2.1697126      39986.588    
      6800   305.98025     -493719.21     -489604.87     -10873.206      265.44895      3227.2332      2.1698716      39983.658    
      6820   306.39952     -493700.05     -489580.07     -9792.5995      466.64863      3311.8806      2.1697708      39985.515    
      6840   306.04262     -493693.55     -489578.37     -15090.439      310.70241      3254.228       2.1697093      39986.649    
      6860   307.02573     -493716        -489587.6      -16280.422      263.51779      3188.8673      2.1697694      39985.541    
      6880   308.00946     -493724.06     -489582.43     -11990.247      245.71713      3177.1201      2.1697636      39985.647    
      6900   303.49176     -493658.14     -489577.26     -13951.59       314.77977      3240.7615      2.1697403      39986.078    
      6920   300.33493     -493626.55     -489588.12     -11778.045      372.14029      3302.5567      2.1697126      39986.588    
      6940   299.92972     -493644.09     -489611.11     -5405.7176      268.47768      3258.7453      2.1697361      39986.154    
      6960   298.72309     -493647.95     -489631.19     -12085.292      439.76271      3331.9785      2.1698554      39983.957    
      6980   301.07534     -493684.24     -489635.85     -10189.3        284.83973      3255.7181      2.1698319      39984.389    
      7000   300.56874     -493677.68     -489636.11     -10513.067      366.4376       3302.0448      2.1698088      39984.815    
      7020   302.63207     -493711.93     -489642.61     -11709.299      379.59228      3297.8325      2.1697402      39986.079    
      7040   305.99816     -493767.18     -489652.6      -11530.887      336.62349      3256.4053      2.1697631      39985.658    
      7060   301.7228      -493735.58     -489678.48     -6077.7865      485.06854      3420.4299      2.1697029      39986.767    
      7080   302.67744     -493752.13     -489682.2      -12541.741      355.64564      3186.9599      2.1697527      39985.848    
      7100   298.12889     -493701.45     -489692.68     -13207.978      469.3045       3268.893       2.169686       39987.078    
      7120   295.48006     -493673.81     -489700.66     -9968.6834      427.42448      3314.2938      2.1696697      39987.379    
      7140   299.67244     -493730.1      -489700.57     -15609.069      247.67849      3191.9657      2.1697197      39986.457    
      7160   299.47379     -493732.83     -489705.97     -11861.224      377.38254      3264.5614      2.1697036      39986.754    
      7180   302.13266     -493776.92     -489714.31     -7236.838       288.35052      3170.2928      2.1697312      39986.245    
      7200   300.57191     -493745.87     -489704.25     -7484.3084      328.99118      3218.1822      2.1697329      39986.214    
      7220   294.35629     -493658.73     -489700.69     -13661.615      355.76842      3304.7853      2.1697673      39985.581    
      7240   299.76428     -493730.86     -489700.1      -9487.3513      345.65955      3187.1568      2.16968        39987.189    
      7260   300.87694     -493739.84     -489694.12     -11991.954      310.28109      3223.0758      2.1697878      39985.203    
      7280   303.56172     -493777.33     -489695.51     -10193.335      345.27856      3278.7887      2.1697083      39986.668    
      7300   301.46679     -493759.33     -489705.68     -11638.573      255.16057      3231.404       2.1696946      39986.92     
      7320   299.43252     -493732.16     -489705.86     -15027.657      287.91932      3212.5213      2.1697524      39985.855    
      7340   297.41558     -493707.41     -489708.23     -11687.178      228.38253      3224.0681      2.1697918      39985.128    
      7360   298.96912     -493728.31     -489708.24     -14912.485      263.15997      3212.894       2.1697399      39986.085    
      7380   305.34964     -493809.73     -489703.87     -13272.575      320.43217      3186.9437      2.1697008      39986.806    
      7400   301.00724     -493763.16     -489715.68     -9103.7276      382.56639      3293.3799      2.1699         39983.135    
      7420   295.84267     -493709.75     -489731.72     -13264.149      331.37622      3194.0252      2.1698295      39984.435    
      7440   298.96034     -493745.58     -489725.63     -9224.8955      304.98209      3186.1255      2.1696746      39987.288    
      7460   298.00739     -493718.53     -489711.39     -14061.256      259.8692       3274.4683      2.1697018      39986.787    
      7480   299.26832     -493737.16     -489713.07     -13001.586      278.8772       3194.8038      2.169804       39984.903    
      7500   301.38526     -493753.99     -489701.43     -11393.052      207.30628      3133.2043      2.1698075      39984.839    
      7520   299.71117     -493719.86     -489689.81     -7590.965       474.39295      3265.4371      2.1697153      39986.539    
      7540   299.22753     -493710.04     -489686.5      -9810.2838      237.20252      3228.701       2.1697008      39986.806    
      7560   297.64925     -493675.07     -489672.75     -8384.4954      374.07693      3281.491       2.1697677      39985.573    
      7580   297.95759     -493662.85     -489656.39     -10223.611      313.72483      3227.9253      2.1697255      39986.35     
      7600   300.57397     -493685.71     -489644.06     -13470.816      240.11764      3165.5895      2.1698019      39984.942    
      7620   299.94707     -493682.76     -489649.54     -12069.224      229.62762      3189.4578      2.1696925      39986.959    
      7640   303.90846     -493732.46     -489645.97     -14017.58       212.01232      3177.1408      2.1696747      39987.286    
      7660   302.62871     -493706.95     -489637.67     -10764.77       287.14961      3227.9598      2.1696844      39987.108    
      7680   302.79249     -493710.78     -489639.3      -10185.337      468.42897      3245.7793      2.1697254      39986.352    
      7700   302.7375      -493710.73     -489639.99     -10858.108      283.11314      3210.6942      2.1697483      39985.93     
      7720   298.21456     -493654.5      -489644.57     -11376.344      296.01723      3250.2083      2.1697645      39985.631    
      7740   297.39757     -493651.81     -489652.88     -12570.467      285.29554      3277.172       2.1697748      39985.442    
      7760   298.14997     -493670.34     -489661.28     -11717.078      214.34522      3201.2701      2.1697984      39985.007    
      7780   297.71154     -493684.9      -489681.74     -15043.043      187.29243      3149.4         2.1696847      39987.101    
      7800   297.19099     -493695.09     -489698.93     -8164.6923      408.85857      3263.573       2.1697077      39986.679    
      7820   297.5398      -493705.01     -489704.16     -14639.45       203.52749      3018.9308      2.169753       39985.843    
      7840   295.78622     -493696.39     -489719.12     -12824.701      325.35281      3179.0163      2.169772       39985.494    
      7860   296.35702     -493728.94     -489743.99     -9199.7052      293.22723      3157.3592      2.1698819      39983.468    
      7880   299.13434     -493789.36     -489767.07     -12399.089      247.07014      3080.4607      2.1697169      39986.509    
      7900   295.1816      -493744.74     -489775.6      -9379.6869      415.23367      3347.1127      2.1697964      39985.043    
      7920   290.46473     -493673.86     -489768.15     -10365.231      340.77884      3219.4444      2.1696793      39987.203    
      7940   289.94218     -493661.83     -489763.15     -14940.204      474.50011      3274.8533      2.1697097      39986.641    
      7960   294.58494     -493728.96     -489767.84     -8131.9442      303.43645      3218.618       2.169736       39986.156    
      7980   296.11586     -493743.23     -489761.52     -7931.9312      416.67529      3204.4967      2.1697656      39985.611    
      8000   293.10696     -493670.72     -489729.48     -14255.871      271.8871       3173.9565      2.1697174      39986.499    
      8020   288.98569     -493573.63     -489687.81     -8133.8766      336.15721      3213.216       2.1696687      39987.397    
      8040   294.73965     -493609.65     -489646.45     -12058.435      277.66373      3134.3068      2.1697167      39986.513    
      8060   296.7514      -493620.66     -489630.41     -8538.6433      270.33778      3213.2174      2.1697442      39986.006    
      8080   298.65017     -493624.54     -489608.76     -10051.597      244.6504       3201.4617      2.1697417      39986.052    
      8100   303.07741     -493663.85     -489588.54     -11762.893      325.71678      3211.4839      2.1697147      39986.549    
      8120   302.26096     -493635.31     -489570.97     -14895.461      274.56541      3157.7644      2.1697714      39985.505    
      8140   304.07827     -493652.58     -489563.81     -8573.1139      318.216        3236.7592      2.1698204      39984.602    
      8160   305.09567     -493683.48     -489581.04     -16532.196      253.95608      3153.0162      2.1699731      39981.788    
      8180   300.49818     -493626.24     -489585.61     -8473.7474      347.33468      3314.7408      2.1699139      39982.878    
      8200   299.47051     -493606.4      -489579.59     -13358.679      264.35579      3250.7486      2.1697652      39985.619    
      8220   298.65459     -493590.58     -489574.74     -15245.715      264.11541      3199.1266      2.1697104      39986.628    
      8240   297.83174     -493576.23     -489571.45     -10176.73       328.77666      3225.8716      2.1697447      39985.998    
      8260   299.03128     -493590.5      -489569.59     -14802.057      249.52607      3112.7299      2.1697223      39986.409    
      8280   295.90595     -493552.95     -489574.07     -11396.667      291.47714      3198.0902      2.1697562      39985.785    
      8300   297.43321     -493577.24     -489577.83     -9628.9445      388.16336      3307.1133      2.1696911      39986.984    
      8320   299.69085     -493593.34     -489563.57     -9357.2368      295.45639      3188.9368      2.1697254      39986.352    
      8340   303.08421     -493628.04     -489552.63     -10052.494      439.92653      3200.2857      2.1697188      39986.474    
      8360   303.55359     -493642.46     -489560.75     -7558.6474      317.31178      3186.1669      2.1697042      39986.744    
      8380   298.75265     -493579.24     -489562.09     -14312.699      196.42054      3128.1558      2.1698344      39984.344    
      8400   299.62507     -493579.35     -489550.46     -9144.9989      234.22172      3140.9298      2.1697626      39985.667    
      8420   299.84153     -493573.82     -489542.02     -12403.153      217.41927      3140.9633      2.1697222      39986.412    
      8440   300.82381     -493575.52     -489530.52     -16520.559      267.3721       3159.1528      2.1697219      39986.417    
      8460   300.88617     -493570.31     -489524.46     -10361.338      285.98821      3198.1763      2.1697096      39986.643    
      8480   296.98807     -493524.39     -489530.96     -6976.9301      523.3105       3283.3778      2.1698949      39983.229    
      8500   299.40903     -493560.7      -489534.72     -10737.649      288.27639      3150.2601      2.169861       39983.853    
      8520   301.74618     -493580.11     -489522.7      -13133.672      500.84571      3321.8128      2.1697028      39986.768    
      8540   303.80529     -493595.56     -489510.46     -15390.177      303.5463       3145.7473      2.1698266      39984.487    
      8560   308.42465     -493656.02     -489508.8      -10836.981      351.93103      3118.6845      2.1697633      39985.653    
      8580   305.18845     -493620.1      -489516.4      -12108.451      419.31213      3221.4494      2.1696975      39986.866    
      8600   304.04506     -493620.7      -489532.38     -11024.975      265.19551      3126.3943      2.1696861      39987.077    
      8620   297.54184     -493568.26     -489567.38     -5901.8297      208.91684      3198.8638      2.1697444      39986.002    
      8640   294.19669     -493529.72     -489573.83     -13759.59       219.43322      3146.1456      2.1696622      39987.517    
      8660   298.18398     -493573.14     -489563.63     -13541.802      226.78932      3137.9379      2.1697028      39986.769    
      8680   300.27494     -493620.76     -489583.14     -8286.8366      206.36257      3126.3066      2.1699068      39983.01     
      8700   301.55644     -493667.82     -489612.96     -7991.8917      327.95672      3150.8151      2.1697634      39985.653    
      8720   300.39304     -493659.85     -489620.63     -13631.514      241.7          3098.8087      2.1698156      39984.69     
      8740   296.15758     -493597.77     -489615.51     -14724.134      272.80145      3186.7545      2.1697247      39986.366    
      8760   295.08085     -493588.77     -489620.99     -16907.44       370.87543      3240.8344      2.1697376      39986.127    
      8780   295.53277     -493615.95     -489642.09     -8668.487       444.08688      3217.5352      2.1697016      39986.791    
      8800   299.5404      -493685.14     -489657.39     -9255.6514      299.2662       3121.7462      2.1696786      39987.216    
      8820   301.54866     -493715.17     -489660.42     -16571.101      203.06836      3064.8565      2.1696942      39986.927    
      8840   299.2498      -493666.57     -489642.73     -14970.974      231.93891      3144.5712      2.1697655      39985.614    
      8860   298.28515     -493646.54     -489635.67     -14765.311      360.04973      3126.1621      2.1697572      39985.766    
      8880   292.44133     -493587.84     -489655.55     -12931.656      227.09635      3163.4812      2.1697371      39986.137    
      8900   293.25676     -493592.06     -489648.8      -9773.702       213.99268      3225.3276      2.1697056      39986.717    
      8920   300.42018     -493655.91     -489616.33     -8248.3365      451.87385      3308.6087      2.1697203      39986.445    
      8940   301.53369     -493644.41     -489589.86     -15469.549      279.52238      3131.1785      2.169742       39986.046    
      8960   301.76519     -493617.57     -489559.9      -7809.0563      323.8925       3233.5402      2.169768       39985.568    
      8980   300.45174     -493582.46     -489542.45     -10697.817      331.17367      3326.5529      2.1696831      39987.133    
      9000   303.26092     -493602.68     -489524.91     -10555.593      392.82212      3378.2175      2.1698454      39984.141    
      9020   305.1406      -493603.2      -489500.15     -7558.5971      720.70111      3435.3636      2.1697524      39985.854    
      9040   302.05374     -493532.66     -489471.11     -9143.9339      341.48644      3336.412       2.1697621      39985.676    
      9060   302.08212     -493525.07     -489463.15     -12055.624      342.47172      3325.544       2.1697613      39985.69     
      9080   299.93057     -493501.62     -489468.62     -16400.048      252.2545       3219.6028      2.1696963      39986.889    
      9100   299.94584     -493493.99     -489460.79     -10153.25       348.6552       3351.5641      2.1697414      39986.057    
      9120   300.53843     -493494.48     -489453.3      -11772.837      362.81744      3359.5097      2.1698265      39984.49     
      9140   300.37991     -493478.67     -489439.63     -13576.138      266.36342      3271.3267      2.1697366      39986.145    
      9160   304.34614     -493528.16     -489435.79     -17794.457      288.63729      3232.8775      2.1697309      39986.25     
      9180   303.34508     -493520.73     -489441.82     -6726.3099      324.50308      3285.7764      2.169834       39984.351    
      9200   304.12578     -493526.9      -489437.49     -11704.855      223.59107      3220.5326      2.1697927      39985.112    
      9220   302.45969     -493512.02     -489445.02     -11681.411      231.12887      3237.8033      2.1697596      39985.723    
      9240   300.20591     -493501.99     -489465.29     -13108.59       243.09336      3191.6777      2.169664       39987.484    
      9260   300.75921     -493535.34     -489491.2      -10081.689      258.55351      3258.8132      2.1696706      39987.362    
      9280   300.43443     -493557.34     -489517.57     -13590.223      246.51348      3287.8852      2.1697457      39985.978    
      9300   298.9817      -493565.86     -489545.62     -8868.4256      218.27531      3218.2001      2.1696954      39986.906    
      9320   298.205       -493582.41     -489572.61     -8947.3399      203.22819      3152.819       2.1698376      39984.285    
      9340   294.68412     -493557.37     -489594.92     -11580.04       238.85164      3274.1937      2.1697236      39986.386    
      9360   297.75888     -493603.83     -489600.04     -12035.846      245.63106      3243.7786      2.1697961      39985.05     
      9380   299.15294     -493617.7      -489595.16     -6539.1714      277.50006      3252.388       2.1696758      39987.266    
      9400   298.3977      -493618.53     -489606.14     -9174.9014      277.32564      3234.299       2.1697069      39986.694    
      9420   298.40441     -493628.16     -489615.69     -8548.761       285.02756      3220.0705      2.169803       39984.922    
      9440   295.91734     -493590.64     -489611.61     -14203.202      232.26916      3281.82        2.1697287      39986.292    
      9460   295.37536     -493572.87     -489601.13     -16111.842      277.57237      3237.4545      2.1696742      39987.296    
      9480   296.09434     -493577.3      -489595.89     -12890.631      323.42559      3187.5674      2.169708       39986.673    
      9500   296.55256     -493567.62     -489580.04     -9962.1453      391.91704      3288.9324      2.1696641      39987.482    
      9520   300.41364     -493592.37     -489552.88     -5295.7366      379.92919      3326.0792      2.1696868      39987.064    
      9540   299.83696     -493560.24     -489528.5      -18396.63       260.79515      3283.9169      2.1699093      39982.963    
      9560   295.30782     -493489.2      -489518.36     -15095.728      270.81464      3224.9207      2.1696761      39987.261    
      9580   296.14348     -493489.38     -489507.3      -12342.083      270.16924      3261.1868      2.1698496      39984.063    
      9600   301.56416     -493542.64     -489487.68     -13046.929      375.03744      3245.1529      2.1696696      39987.381    
      9620   304.3221      -493566.65     -489474.6      -14149.026      280.33211      3209.3792      2.1697437      39986.015    
      9640   300.46839     -493503.02     -489462.79     -11080.949      238.31369      3213.0964      2.1698064      39984.86     
      9660   297.56224     -493448.84     -489447.69     -10848.767      370.87728      3328.5341      2.1697955      39985.06     
      9680   298.28098     -493460.31     -489449.49     -11032.63       221.40082      3195.2579      2.1697959      39985.054    
      9700   302.09759     -493509.05     -489446.92     -5709.8963      286.77951      3313.5077      2.1697875      39985.208    
      9720   302.98435     -493522.35     -489448.29     -13098.234      220.34191      3189.1054      2.1697478      39985.94     
      9740   303.8946      -493519.05     -489432.75     -9097.4655      213.74731      3156.8476      2.169847       39984.111    
      9760   301.74342     -493489.61     -489432.23     -7284.1367      411.00013      3316.5336      2.1697409      39986.066    
      9780   299.3565      -493474.09     -489448.81     -15419.186      247.24206      3249.7687      2.1697369      39986.14     
      9800   300.20738     -493493.71     -489456.99     -5645.6624      328.06194      3283.9206      2.1697176      39986.496    
      9820   301.33231     -493500.25     -489448.41     -16492.155      212.40521      3157.9679      2.1697969      39985.035    
      9840   301.50734     -493495.49     -489441.3      -11626.264      320.78547      3235.4691      2.1698093      39984.806    
      9860   300.86549     -493501.36     -489455.79     -11148.163      235.33517      3151.6444      2.1697575      39985.76     
      9880   301.90498     -493530.02     -489470.47     -14007.627      294.87948      3134.0161      2.169767       39985.585    
      9900   300.94518     -493531.1      -489484.46     -10386.911      276.70819      3206.1832      2.1696904      39986.998    
      9920   296.37292     -493479.17     -489494.01     -12925.032      354.47906      3270.8863      2.1696944      39986.923    
      9940   297.51698     -493505.57     -489505.03     -14569.649      316.30501      3151.4231      2.169703       39986.765    
      9960   295.08484     -493477.54     -489509.7      -10139.927      538.24347      3331.3434      2.1696924      39986.96     
      9980   294.85049     -493472.89     -489508.2      -11270.858      297.35261      3257.2125      2.1696946      39986.92     
     10000   296.70127     -493506.6      -489517.03     -10684.067      277.80857      3138.6066      2.1698382      39984.273    
     10020   295.25458     -493475.71     -489505.59     -8119.3591      454.84647      3255.5041      2.1696784      39987.218    
     10040   298.78308     -493500.6      -489483.04     -10372.806      310.8842       3218.234       2.1696849      39987.099    
     10060   299.47915     -493473.87     -489446.94     -12495.468      215.98158      3193.4313      2.1696793      39987.203    
     10080   302.17208     -493466.85     -489403.71     -12891.784      235.42472      3175.8944      2.1698796      39983.51     
     10100   303.7151      -493454.59     -489370.71     -15484.431      227.03163      3210.0443      2.1696894      39987.017    
     10120   300.93754     -493386.64     -489340.1      -11078.857      282.72795      3213.2205      2.1696761      39987.26     
     10140   302.80281     -493397.92     -489326.3      -10806.644      286.40143      3183.9063      2.1697142      39986.559    
     10160   299.54842     -493353.15     -489325.29     -11433.069      301.56462      3305.3306      2.1696933      39986.944    
     10180   300.55633     -493356.92     -489315.5      -17509.397      294.9652       3241.1074      2.1697889      39985.182    
     10200   306.6708      -493430.56     -489306.93     -11485.72       376.32076      3226.7955      2.1696944      39986.924    
     10220   305.1593      -493416.66     -489313.35     -14246.361      297.47117      3224.7213      2.1697199      39986.453    
     10240   306.80474     -493441.71     -489316.28     -12522.884      435.11871      3363.6363      2.169751       39985.881    
     10260   307.53053     -493468.43     -489333.24     -9839.66        229.86382      3177.3595      2.1697081      39986.671    
     10280   306.28652     -493466        -489347.54     -18793.751      349.01818      3189.248       2.1697123      39986.594    
     10300   304.02323     -493464.44     -489376.41     -9673.4937      382.04026      3323.9921      2.1696903      39986.999    
     10320   301.98152     -493470.55     -489409.98     -10403.063      249.4035       3184.2373      2.1697116      39986.607    
     10340   300.76821     -493473.53     -489429.27     -9807.557       295.47299      3212.213       2.1697292      39986.283    
     10360   297.08136     -493438.13     -489443.45     -13268.093      420.72138      3353.2784      2.1697825      39985.3      
     10380   295.91923     -493435.46     -489456.4      -9694.0704      386.83937      3285.5293      2.1698501      39984.055    
     10400   297.00863     -493462.13     -489468.42     -14360.732      279.85787      3122.6413      2.1698002      39984.974    
     10420   297.17249     -493465.24     -489469.33     -10758.336      353.81467      3159.8474      2.1697306      39986.256    
     10440   295.6475      -493432.51     -489457.11     -8627.2102      237.17156      3312.7672      2.1697785      39985.374    
     10460   296.85351     -493440.66     -489449.04     -12188.746      305.72932      3190.3825      2.1696776      39987.233    
     10480   295.72541     -493429.49     -489453.04     -13837.629      294.20798      3214.7992      2.1699079      39982.99     
     10500   297.00861     -493440.16     -489446.45     -6634.0749      464.81977      3446.3562      2.1696793      39987.203    
     10520   299.14257     -493451.47     -489429.07     -13678.431      252.47928      3241.7652      2.1696792      39987.204    
     10540   301.01842     -493450.1      -489402.47     -7828.1382      273.61139      3183.897       2.16971        39986.637    
     10560   298.70816     -493388.35     -489371.79     -16478.763      250.77189      3108.8888      2.1697279      39986.307    
     10580   295.3921      -493329.51     -489357.54     -14449.206      257.83132      3253.8962      2.1696856      39987.085    
     10600   297.95514     -493347.3      -489340.86     -11641.255      269.79798      3203.1497      2.1696856      39987.086    
     10620   297.49895     -493323.83     -489323.53     -11854.965      276.77988      3206.8388      2.1696745      39987.291    
     10640   302.44505     -493378.83     -489312.02     -8739.3816      250.19721      3201.2117      2.1697555      39985.797    
     10660   302.90366     -493377.49     -489304.51     -11479.618      207.31626      3181.6653      2.1698712      39983.666    
     10680   301.36194     -493333.23     -489280.99     -11843.584      215.61988      3173.57        2.16985        39984.055    
     10700   304.54591     -493380.03     -489284.97     -12805.681      283.4563       3183.9694      2.1699442      39982.321    
     10720   303.73052     -493376.51     -489292.42     -18439.874      192.57698      3202.9441      2.1697042      39986.744    
     10740   303.27011     -493371.29     -489293.39     -10902.488      284.78892      3193.7042      2.1697934      39985.099    
     10760   301.11842     -493351.09     -489302.12     -9065.8398      321.97778      3271.8185      2.1697749      39985.439    
     10780   300.93253     -493364.02     -489317.55     -13599.78       237.34528      3165.3768      2.1697607      39985.702    
     10800   305.21937     -493427.19     -489323.08     -13952.095      259.64545      3183.7597      2.1698338      39984.355    
     10820   303.84122     -493427.51     -489341.93     -4061.1088      828.46286      3412.4238      2.1697136      39986.57     
     10840   301.05115     -493409.25     -489361.18     -13227.713      212.79999      3201.7021      2.1697124      39986.592    
     10860   297.92881     -493380.65     -489374.57     -15078.48       229.98909      3231.7742      2.1697885      39985.189    
     10880   295.77773     -493353.78     -489376.63     -13519.93       377.74732      3284.7898      2.1696929      39986.952    
     10900   301.26682     -493425.1      -489374.13     -14068.043      255.33015      3206.1297      2.169744       39986.009    
     10920   303.39304     -493455.19     -489375.63     -7782.5721      271.9129       3251.5713      2.1697533      39985.838    
     10940   299.50788     -493429.38     -489402.06     -9676.502       348.92666      3270.2929      2.1697804      39985.339    
     10960   297.99089     -493419.84     -489412.92     -5338.3161      239.35774      3179.035       2.1696934      39986.942    
     10980   294.11343     -493370.35     -489415.57     -7282.2687      420.58729      3392.4849      2.169727       39986.322    
     11000   299.46523     -493434.38     -489407.64     -19348.659      259.97032      3210.7361      2.1697024      39986.776    
     11020   304.73973     -493499.97     -489402.3      -9584.2178      215.64591      3161.9508      2.169721       39986.433    
     11040   301.19839     -493468.61     -489418.56     -6096.0405      260.80092      3302.4338      2.1697326      39986.22     
     11060   301.03046     -493471.95     -489424.17     -16073.125      226.55072      3201.1044      2.1697132      39986.578    
     11080   299.54014     -493451.26     -489423.52     -8980.5189      225.94817      3213.3198      2.1697442      39986.006    
     11100   300.407       -493463.99     -489424.59     -12692.408      267.45891      3243.4111      2.1696966      39986.882    
     11120   302.8164      -493500.67     -489428.87     -13858.369      194.82428      3150.8417      2.1698396      39984.247    
     11140   303.56882     -493527.89     -489445.97     -10634.124      276.53189      3163.5631      2.1697825      39985.299    
     11160   304.9888      -493567.81     -489466.8      -11097.196      180.8467       3172.1131      2.1696648      39987.469    
     11180   302.36191     -493531.86     -489466.17     -14450.13       208.89805      3266.33        2.1697406      39986.073    
     11200   305.60159     -493571.52     -489462.26     -12123.236      307.62957      3268.8149      2.1697806      39985.336    
     11220   304.06098     -493566.49     -489477.95     -10356.181      276.84705      3142.9852      2.1697277      39986.31     
     11240   298.904       -493514.64     -489495.45     -11829.574      200.14995      3201.7713      2.169811       39984.774    
     11260   295.70082     -493487.94     -489511.82     -10443.195      254.77637      3295.9623      2.169858       39983.909    
     11280   297.52553     -493507.18     -489506.52     -13961.41       261.00678      3231.0943      2.1697211      39986.431    
     11300   301.8337      -493559.59     -489501        -9771.6122      262.44818      3137.4173      2.169727       39986.323    
     11320   300.17157     -493544.17     -489507.93     -14833.806      373.34925      3223.9808      2.1698846      39983.419    
     11340   298.06778     -493535.99     -489528.04     -15135.274      233.87635      3139.6099      2.1697278      39986.308    
     11360   298.01004     -493534.78     -489527.61     -6629.2029      218.16803      3153.7508      2.1697189      39986.472    
     11380   298.19233     -493533.42     -489523.8      -13745.44       189.06485      3101.4891      2.1696902      39987.001    
     11400   298.77901     -493539.21     -489521.7      -15405.613      191.81951      3111.2208      2.169663       39987.502    
     11420   296.25759     -493506.01     -489522.41     -10340.971      193.58886      3159.6245      2.1697347      39986.18     
     11440   295.13632     -493472.43     -489503.9      -12910.725      225.05894      3126.9207      2.1697499      39985.9      
     11460   297.50547     -493483.43     -489483.04     -10084.564      235.40611      3191.9738      2.1697713      39985.506    
     11480   300.18324     -493499.66     -489463.27     -13797.882      252.03879      3185.8544      2.1697212      39986.43     
     11500   304.44271     -493527.73     -489434.06     -7012.3609      211.95869      3150.9314      2.1696856      39987.086    
     11520   304.33722     -493519.68     -489427.43     -8083.3362      273.20815      3206.2562      2.1697987      39985.001    
[...]
     37180   299.60179     -493231.81     -489203.24     -14769.553      231.55306      3176.1463      2.1696772      39987.24     
     37200   298.15694     -493216.58     -489207.43     -13762.634      342.76831      3219.418       2.1697092      39986.651    
     37220   297.35837     -493215.21     -489216.8      -10494.273      324.67698      3237.8352      2.1697215      39986.425    
     37240   301.41133     -493264.79     -489211.88     -10323.417      416.49318      3252.9022      2.169747       39985.954    
     37260   299.73644     -493236.35     -489205.96     -15425.9        221.46129      3201.5134      2.169696       39986.894    
     37280   298.27523     -493206.92     -489196.18     -9805.6928      266.3633       3198.9942      2.1697516      39985.869    
     37300   295.95744     -493174.33     -489194.76     -14984.782      233.23151      3242.405       2.1696782      39987.223    
     37320   291.63393     -493105.23     -489183.79     -12981.882      230.30089      3316.6468      2.1697059      39986.711    
     37340   295.29889     -493126.81     -489156.1      -11009.144      283.14317      3333.9359      2.1698082      39984.826    
     37360   300.38248     -493169.41     -489130.33     -10460.242      298.59888      3390.1616      2.1697214      39986.425    
     37380   305.30375     -493195.4      -489090.16     -15600.258      220.9254       3272.1804      2.1697089      39986.657    
     37400   307.55676     -493202.96     -489067.42     -11335.058      223.48603      3250.9983      2.1696683      39987.405    
     37420   304.23902     -493157.89     -489066.96     -13059.263      193.77833      3257.0279      2.1696939      39986.933    
     37440   304.81215     -493169.24     -489070.6      -13895.425      239.65794      3291.5022      2.1696908      39986.989    
     37460   303.94269     -493146.87     -489059.93     -12946.188      206.90635      3291.6993      2.1696857      39987.084    
     37480   303.99239     -493147.9      -489060.28     -11455.319      238.28783      3269.9532      2.1697173      39986.502    
     37500   305.77336     -493185.8      -489074.24     -14447.95       218.70444      3202.0402      2.1698669      39983.745    
     37520   302.0731      -493161.66     -489099.85     -7454.0146      315.66524      3335.8224      2.1697066      39986.699    
     37540   299.42773     -493155.77     -489129.54     -16050.089      219.28389      3311.3615      2.169701       39986.802    
     37560   300.64854     -493191.22     -489148.56     -13372.062      207.43062      3237.5007      2.1697559      39985.791    
     37580   303.27951     -493239.74     -489161.71     -10577.886      291.22025      3281.8497      2.1698091      39984.81     
     37600   302.362       -493234.42     -489168.73     -16966.025      309.64369      3346.1121      2.1696893      39987.018    
     37620   301.52046     -493246.61     -489192.23     -16693.702      204.13589      3254.1712      2.169704       39986.746    
     37640   300.49289     -493259.2      -489218.64     -15372.155      188.95693      3217.52        2.1698532      39983.996    
     37660   297.30058     -493218.32     -489220.69     -11513.736      244.23819      3297.9569      2.1696736      39987.307    
     37680   296.69997     -493212.79     -489223.23     -20840.25       391.43255      3404.867       2.1697209      39986.436    
     37700   300.29981     -493262.53     -489224.57     -11325.202      796.86927      3653.2669      2.1697288      39986.29     
     37720   300.13258     -493261.94     -489226.23     -11951.321      216.40903      3199.6714      2.169882       39983.466    
     37740   297.20574     -493225.93     -489229.57     -14376.565      251.87919      3260.748       2.1697834      39985.284    
     37760   295.60615     -493204.21     -489229.36     -9652.6278      285.71052      3315.6609      2.1697083      39986.668    
     37780   298.28078     -493237.77     -489226.95     -21156.144      339.67999      3246.0905      2.1696788      39987.212    
     37800   298.6827      -493232.42     -489216.2      -14099.568      239.58282      3248.1638      2.1697307      39986.254    
     37820   298.07154     -493211.93     -489203.93     -5054.5155      314.67607      3384.1367      2.1698195      39984.618    
     37840   301.71115     -493253.99     -489197.06     -7430.1159      334.10919      3284.2524      2.1697329      39986.215    
     37860   300.72467     -493236.43     -489192.75     -10322.551      265.14885      3244.0676      2.1698461      39984.128    
     37880   300.07519     -493217.83     -489182.89     -10740.94       246.08699      3294.3689      2.1698037      39984.908    
     37900   300.65661     -493220.4      -489177.64     -11693.494      267.49866      3240.4096      2.1697214      39986.426    
     37920   298.28045     -493177.29     -489166.48     -15910.14       213.799        3236.5149      2.1698126      39984.746    
     37940   297.26964     -493156.06     -489158.85     -12930.929      232.45577      3236.6383      2.1696888      39987.027    
     37960   295.62018     -493116.16     -489141.12     -15294.72       307.16677      3323.015       2.1697086      39986.663    
     37980   301.09955     -493164.07     -489115.35     -14503.752      231.15126      3254.4903      2.1698389      39984.26     
     38000   303.92323     -493161.73     -489075.05     -13040.189      251.12201      3328.5923      2.1696866      39987.067    
     38020   305.17004     -493141.56     -489038.11     -20259.967      499.98513      3493.7701      2.1696908      39986.99     
     38040   307.22134     -493137.16     -489006.13     -16041.228      302.47412      3296.2355      2.1697822      39985.305    
     38060   306.97627     -493117.04     -488989.3      -8339.7742      214.6661       3361.2327      2.1697077      39986.678    
     38080   308.85771     -493144.15     -488991.11     -11844.542      418.11488      3437.5443      2.1698762      39983.573    
     38100   309.71061     -493169.01     -489004.51     -12675.137      233.77211      3265.2094      2.1698037      39984.909    
     38120   305.50292     -493127.66     -489019.74     -10952.694      244.60114      3394.427       2.1697344      39986.187    
     38140   307.06172     -493158.73     -489029.85     -9894.3283      453.59073      3345.7664      2.1696758      39987.266    
     38160   306.3634      -493162.05     -489042.55     -11295.966      355.49704      3397.1885      2.1698034      39984.915    
     38180   308.53373     -493196.06     -489047.38     -13409.875      266.36273      3330.9325      2.1696908      39986.989    
     38200   303.41934     -493139.31     -489059.4      -13287.545      326.22985      3331.6362      2.1697373      39986.132    
     38220   301.57343     -493122.16     -489067.07     -10856.52       292.34923      3376.7466      2.1696986      39986.847    
     38240   305.1737      -493180.38     -489076.89     -11893.621      411.81491      3408.4932      2.1697401      39986.081    
     38260   303.7582      -493183.93     -489099.47     -10269.516      326.86897      3382.276       2.1698529      39984.002    
     38280   303.58049     -493202.79     -489120.72     -12233.553      279.9535       3318.2638      2.1698119      39984.759    
     38300   301.4926      -493201.17     -489147.17     -13658.583      273.12698      3334.7543      2.1697554      39985.8      
     38320   300.86785     -493214.27     -489168.67     -17144.681      220.52638      3273.8591      2.169705       39986.727    
     38340   303.56269     -493266.3      -489184.46     -13564.233      351.57314      3243.5149      2.1696851      39987.095    
     38360   297.72881     -493213.86     -489210.47     -12378.23       232.35803      3326.1857      2.169738       39986.12     
     38380   295.44842     -493191.79     -489219.06     -8459.389       566.30898      3480.7162      2.1696842      39987.112    
     38400   289.56961     -493117.3      -489223.63     -10891.202      228.50051      3315.811       2.1697205      39986.442    
     38420   290.21518     -493113.05     -489210.69     -13059.104      408.4465       3324.2295      2.169675       39987.281    
     38440   295.11583     -493170.89     -489202.64     -13831.901      316.89259      3319.6592      2.1696783      39987.221    
     38460   294.12612     -493146.83     -489191.88     -13430.301      297.68963      3389.6668      2.1697882      39985.195    
     38480   299.92375     -493203.77     -489170.86     -11479.578      443.63773      3453.1264      2.1696886      39987.031    
     38500   302.40276     -493209.8      -489143.56     -14754.07       370.45028      3322.145       2.1696901      39987.002    
     38520   302.00906     -493181.21     -489120.26     -11355.296      234.20432      3266.4763      2.169667       39987.429    
     38540   300.25167     -493142.85     -489105.54     -11779.695      266.7082       3344.8063      2.1697565      39985.779    
     38560   293.91918     -493034.44     -489082.27     -12316.877      416.40948      3388.1604      2.1696832      39987.13     
     38580   296.97687     -493067        -489073.72     -12921.217      346.44986      3381.3083      2.1697294      39986.279    
     38600   297.55325     -493078.68     -489077.65     -17456.867      276.81399      3358.2129      2.1696684      39987.402    
     38620   301.91495     -493130.68     -489071        -15661.166      293.50129      3299.7696      2.1697149      39986.546    
     38640   303.13497     -493134.72     -489058.63     -9486.0332      345.87213      3309.0432      2.1697538      39985.828    
     38660   295.64689     -493033.18     -489057.79     -15517.985      274.94722      3371.8777      2.169748       39985.936    
     38680   303.16985     -493122.89     -489046.33     -15073.689      350.31553      3284.4925      2.1697249      39986.361    
     38700   308.05103     -493181.29     -489039.1      -6327.0328      380.14662      3358.034       2.1697171      39986.506    
     38720   306.12051     -493154.73     -489038.5      -12404.507      256.29303      3295.295       2.1696974      39986.868    
     38740   305.62416     -493154.94     -489045.38     -6372.1901      448.6685       3339.4273      2.1696929      39986.952    
     38760   298.58816     -493083.07     -489068.12     -11133.152      491.39538      3400.5507      2.1696981      39986.855    
     38780   300.54995     -493123.2      -489081.87     -18426.867      250.74916      3239.8096      2.1696862      39987.076    
     38800   302.85738     -493159.72     -489087.37     -11523.883      211.60672      3287.7565      2.1698342      39984.347    
     38820   302.21773     -493163.27     -489099.52     -12453.288      342.1105       3303.868       2.1697604      39985.708    
     38840   302.52801     -493177.79     -489109.87     -10411.898      254.40994      3233.6421      2.1696881      39987.04     
     38860   296.83296     -493097.49     -489106.14     -10117.788      292.03571      3261.6575      2.1697038      39986.751    
     38880   298.48347     -493111.56     -489098.02     -14271.894      343.02421      3281.8113      2.1696851      39987.096    
     38900   302.32015     -493166.77     -489101.64     -18362.008      225.51823      3207.9169      2.1698678      39983.728    
     38920   301.12241     -493161.92     -489112.89     -19906.596      382.60398      3272.2768      2.1698148      39984.705    
     38940   300.81023     -493165.36     -489120.54     -13974.12       392.45505      3344.8018      2.1697239      39986.379    
     38960   297.19326     -493125.19     -489129        -9353.8542      473.236        3386.2618      2.1697225      39986.406    
     38980   300.96873     -493178.72     -489131.77     -11443.587      308.94217      3245.8787      2.1698985      39983.162    
     39000   303.20788     -493208.51     -489131.44     -10770.346      333.64103      3259.248       2.1697432      39986.024    
     39020   296.85498     -493121.53     -489129.89     -11181.795      393.44324      3369.685       2.1697166      39986.514    
     39040   295.92569     -493117.39     -489138.24     -13598.453      281.79576      3314.9148      2.1697087      39986.661    
     39060   295.30564     -493106.11     -489135.3      -9528.302       238.69915      3321.5149      2.1697026      39986.773    
     39080   299.90178     -493155.58     -489122.97     -6765.0439      548.38666      3469.8956      2.1698916      39983.29     
     39100   302.42326     -493178.15     -489111.63     -8859.7459      433.79319      3337.7925      2.1697492      39985.914    
     39120   297.63178     -493104.48     -489102.4      -13296.463      318.59244      3258.036       2.1697         39986.821    
     39140   298.83924     -493109.39     -489091.07     -13431.302      317.80976      3320.2646      2.1697448      39985.995    
     39160   302.79672     -493141.26     -489069.72     -13452.164      411.35981      3343.8326      2.1696996      39986.828    
     39180   304.86279     -493148.55     -489049.23     -11590.634      335.57363      3279.2312      2.1697463      39985.967    
     39200   301.67158     -493101.11     -489044.7      -17125.034      291.39611      3341.307       2.1696848      39987.101    
     39220   297.82203     -493051        -489046.35     -11649.027      304.5245       3349.4142      2.1697179      39986.49     
     39240   301.6608      -493094.38     -489038.12     -16634.394      208.75623      3246.9021      2.1697883      39985.192    
     39260   302.24365     -493098.24     -489034.14     -16028.68       300.36375      3364.4632      2.169827       39984.479    
     39280   305.51871     -493132.21     -489024.07     -11534.416      317.27966      3282.9862      2.1697383      39986.114    
     39300   305.13517     -493106.22     -489003.24     -10320.3        240.55289      3344.8252      2.1697043      39986.742    
     39320   303.06204     -493057.57     -488982.46     -12997.033      309.10219      3330.3851      2.1699377      39982.441    
     39340   304.16376     -493062.11     -488972.2      -12749.904      358.40878      3447.5235      2.1697362      39986.153    
     39360   308.72349     -493119.83     -488968.6      -14128.82       332.4883       3358.4148      2.1697196      39986.459    
     39380   309.50162     -493127.69     -488965.99     -9085.0349      345.27191      3369.5378      2.1697047      39986.733    
     39400   308.07329     -493114.8      -488972.31     -11865.349      335.1715       3429.9592      2.1698061      39984.864    
     39420   303.82922     -493078.1      -488992.68     -12878.436      225.66409      3461.4244      2.1697069      39986.694    
     39440   304.37212     -493099.42     -489006.7      -13506.897      215.31804      3301.3662      2.1697541      39985.823    
     39460   302.42667     -493096.45     -489029.89     -7030.9726      468.90215      3481.2241      2.1696873      39987.055    
     39480   298.52576     -493063.28     -489049.17     -14852.121      216.4241       3286.0182      2.1696803      39987.184    
     39500   300.34838     -493095.36     -489056.74     -14148.085      202.69502      3280.8987      2.1696817      39987.157    
     39520   303.281       -493139.7      -489061.66     -9653.5246      339.91525      3358.4993      2.1697366      39986.146    
     39540   300.97085     -493124.82     -489077.83     -17044.085      265.02181      3263.9295      2.1697422      39986.043    
     39560   299.14637     -493123.49     -489101.04     -19227.01       288.69672      3303.9596      2.1697968      39985.037    
     39580   294.88941     -493082.12     -489116.91     -8151.3368      238.0386       3332.8741      2.1696975      39986.867    
     39600   297.40948     -493115.19     -489116.09     -7874.7272      374.12719      3325.948       2.1697171      39986.506    
     39620   300.94006     -493172.39     -489125.82     -11802.591      230.76553      3211.6015      2.1697643      39985.635    
     39640   297.24065     -493131.76     -489134.94     -14823.858      254.41785      3222.9752      2.1697308      39986.253    
     39660   300.73981     -493172.36     -489128.48     -8880.9223      242.82702      3263.302       2.1698894      39983.331    
     39680   299.98373     -493154.56     -489120.85     -14620.872      208.93634      3220.232       2.1698415      39984.212    
     39700   300.93455     -493174.35     -489127.85     -7713.9758      214.8793       3200.2612      2.1697749      39985.439    
     39720   296.03378     -493117.73     -489137.13     -11285.951      267.88406      3295.3448      2.1696986      39986.845    
     39740   295.57832     -493107.95     -489133.48     -13286.859      208.73304      3261.1432      2.1697581      39985.749    
     39760   300.51076     -493144.33     -489103.53     -14924.149      258.59031      3271.9803      2.1697462      39985.969    
     39780   297.87526     -493084.12     -489078.76     -18045.363      345.97049      3254.8083      2.16973        39986.268    
     39800   299.11757     -493085.26     -489063.19     -14653.895      263.92327      3282.0505      2.1697285      39986.295    
     39820   303.06899     -493126.45     -489051.26     -16192.693      493.77114      3323.0832      2.1697511      39985.878    
     39840   302.9593      -493092.85     -489019.12     -17214.597      232.14607      3256.8147      2.1696977      39986.863    
     39860   303.53713     -493068.66     -488987.17     -10137.61       290.2736       3349.0721      2.1696798      39987.193    
     39880   301.88254     -493025.19     -488965.95     -17473.104      226.86757      3289.3434      2.1697018      39986.788    
     39900   301.43341     -493009.97     -488956.77     -12351.776      299.90799      3277.3718      2.1697613      39985.692    
     39920   306.00008     -493061.57     -488946.96     -9056.508       308.50326      3343.7353      2.1696863      39987.073    
     39940   303.27794     -493025.61     -488947.6      -13075.564      333.52606      3401.6487      2.1697512      39985.877    
     39960   306.05867     -493063.93     -488948.53     -12974.467      388.92142      3265.1056      2.1697087      39986.66     
     39980   304.05592     -493024.85     -488936.38     -12492.494      277.51791      3324.1108      2.1696813      39987.164    
     40000   304.15642     -493026.55     -488936.73     -7199.3617      275.25717      3280.5558      2.1697323      39986.226    
Loop time of 1928.66 on 32 procs for 40000 steps with 4512 atoms

Performance: 0.179 ns/day, 133.935 hours/ns, 20.740 timesteps/s, 93.578 katom-step/s
98.9% CPU use with 32 MPI tasks x 1 OpenMP threads

MPI task timing breakdown:
Section |  min time  |  avg time  |  max time  |%varavg| %total
---------------------------------------------------------------
Pair    | 1104.3     | 1215.1     | 1328.9     | 281.5 | 63.00
Neigh   | 55.655     | 57.093     | 58.832     |  12.2 |  2.96
Comm    | 10.343     | 125.92     | 237.73     | 874.7 |  6.53
Output  | 0.37379    | 0.44836    | 0.88777    |  12.7 |  0.02
Modify  | 526.24     | 529.31     | 534.94     |   9.4 | 27.44
Other   |            | 0.8219     |            |       |  0.04

Nlocal:            141 ave         157 max         124 min
Histogram: 2 1 6 3 3 3 5 3 5 1
Nghost:        2618.62 ave        2666 max        2575 min
Histogram: 2 1 1 9 2 7 6 3 0 1
Neighs:        76145.7 ave       87819 max       65170 min
Histogram: 3 1 6 4 2 4 4 5 2 1

Total # of neighbors = 2436662
Ave neighs/atom = 540.04034
Neighbor list builds = 4000
Dangerous builds not checked


write_data      final.lmpdata
System init for write_data ...
Total wall time: 0:32:08
