258
 Atoms. Timestep: 0
2 8.67047 8.67373 45.6612
1 9.34384 9.45478 0.0363466
1 9.68384 10.5922 45.2967
2 3.87044 7.52295 3.01989
2 9.45764 8.28172 1.82692
2 4.9839 11.1075 3.29989
1 9.77489 9.17143 1.36103
1 2.71248 11.404 -0.148521
2 2.9845 12.2484 45.3864
1 2.79678 10.0315 1.96742
1 4.41375 8.49324 3.12996
1 3.31631 11.0913 1.11084
2 5.10916 8.68967 2.35093
1 4.08213 10.8647 3.91712
2 5.19591 8.39545 3.97934
2 4.11451 11.752 1.49547
1 3.38721 9.60454 3.29578
2 3.36536 11.674 4.03463
2 4.51912 10.6778 4.96272
1 2.29259 9.16396 4.29309
2 3.51031 7.52059 5.29436
2 8.94594 10.722 3.61999
1 2.57958 8.09465 5.2423
1 9.08758 9.90233 4.32929
1 9.64939 7.81282 6.25486
1 8.11588 9.54212 5.30106
2 9.87011 7.02581 6.96954
2 7.20883 10.1066 5.33812
1 8.38072 8.49333 6.26549
3 7.28842 8.18759 6.99413
2 9.39278 8.29056 8.65671
1 7.40136 7.67009 8.23578
1 8.6107 7.65599 9.05793
2 5.22836 7.17709 8.31318
1 6.20938 7.02972 8.76069
1 8.69587 6.9025 10.2465
2 9.56913 6.94654 10.8572
1 6.26648 6.21169 9.92811
1 7.54126 6.07589 10.671
1 5.10041 5.41751 10.6333
3 3.94861 5.41315 10.3565
1 7.25587 5.08699 11.867
4 5.77232 12.9545 11.7756
3 8.05374 4.8747 12.705
2 3.20392 11.9768 11.758
1 5.08434 12.1626 12.833
1 3.71749 11.8177 12.6977
2 6.87708 11.8338 14.0892
1 5.76495 11.7403 14.038
1 3.02486 11.1677 13.7907
2 1.99796 11.038 13.6631
1 5.19257 10.9307 15.0731
1 3.78589 10.7436 14.9469
3 8.28347 10.5467 15.5602
4 5.93848 10.2997 16.2143
2 3.34647 10.1632 15.7736
1 7.45768 10.1394 16.3241
3 4.16732 9.65001 17.9023
1 5.32266 9.59947 17.5246
1 7.76753 9.3815 17.6241
1 6.48725 9.00247 18.3002
2 2.01064 9.17828 17.6813
1 9.04999 8.94213 18.1905
1 6.57191 8.31718 19.5789
2 5.63418 8.13157 20.0426
1 9.03397 8.14596 19.3473
1 7.81158 7.89842 20.1271
2 9.9558 7.65391 19.6291
2 2.02541 8.8988 21.1397
3 7.73839 7.50623 21.4132
1 9.87325 8.40787 22.0982
1 8.73269 7.47816 22.2855
2 3.57296 9.23728 23.0332
2 4.80764 6.82626 25.2469
2 5.13351 9.29594 24.6698
1 2.70006 8.63248 23.1957
1 8.55635 6.86513 23.6002
2 7.7079 6.24804 23.8202
1 4.20217 7.3237 26.0955
1 2.46737 8.09281 24.5438
1 4.32148 9.64214 25.3531
2 4.9804 7.6357 26.8173
1 9.35328 7.19545 24.7065
2 3.81971 10.4888 24.8936
2 3.61735 6.56677 26.6369
2 4.93762 10.0009 26.1955
1 3.31396 8.5249 25.6901
2 9.09563 6.73365 25.6636
1 2.50344 8.9624 26.9237
2 8.85694 9.35631 25.4865
2 4.04654 8.97746 28.5914
1 9.1838 9.38431 26.5877
1 3.00329 9.15712 28.3008
1 8.30108 9.80148 27.619
1 2.08887 9.66464 29.2555
2 7.33468 10.2912 27.2878
2 2.42766 9.75304 30.2892
1 8.74583 10.0481 28.9649
3 7.80963 10.4722 29.852
2 2.17063 11.6656 30.6271
1 8.11136 11.1508 30.9672
1 9.37387 11.7832 31.2873
2 6.13002 10.8299 31.751
1 7.03927 11.3514 31.9151
1 9.57219 12.4864 32.4902
2 2.50742 12.8896 32.6749
1 7.15397 12.1088 33.146
1 8.52436 12.7278 33.4461
1 6.23337 12.4574 34.2725
3 5.01531 12.456 34.2362
1 8.521 4.96908 34.8371
4 7.03633 13.1664 35.3661
3 9.45343 5.52422 35.3716
1 6.33946 5.92955 36.1149
2 8.177 6.60333 37.1046
2 4.28765 5.59357 35.462
1 7.10199 6.78023 36.9561
1 4.94864 6.25091 36.088
1 6.60902 7.87369 37.7834
1 4.34044 7.35156 36.809
2 3.24301 7.51115 36.7246
3 5.65223 9.97414 39.8976
1 5.22387 8.10766 37.6201
4 7.41707 8.64578 38.7829
1 6.68074 9.42022 39.9207
3 9.65408 7.60649 38.808
1 8.77411 8.19745 39.3719
2 4.68968 8.92548 38.1496
1 7.62939 9.4828 41.1302
1 8.91259 8.74723 40.7813
2 6.73363 10.7972 42.658
1 7.59229 10.1578 42.3784
1 2.02319 8.67499 41.6418
2 2.97831 8.19049 41.3197
1 8.73649 10.1164 43.2614
1 9.92462 9.34705 42.8797
3 8.90573 10.9944 44.2588
2 2.71955 9.30826 43.6205
1 7.57845 12.5625 6.89861
1 9.02104 12.8327 6.95394
1 9.74495 4.94755 5.83273
1 9.09737 5.18639 4.57112
1 6.92794 12.9945 5.68257
1 7.64388 4.96387 4.49459
1 9.70508 5.57821 3.16129
4 8.44857 5.70069 2.262
1 9.92603 12.2817 20.4427
2 9.60184 12.7401 7.89973
2 2.76185 5.09569 5.98524
2 5.83072 12.9778 5.58321
3 6.07602 4.95354 2.63056
1 7.14538 5.23479 3.02814
3 2.82087 5.456 2.91839
1 6.77915 11.8554 7.97358
1 5.34821 11.6466 7.68645
1 4.52216 11.0553 8.66204
1 5.1046 10.4376 9.83433
1 7.31955 11.3831 9.2562
1 6.54347 10.603 10.1618
1 4.48637 9.51042 10.9095
4 5.67107 9.03264 11.7586
3 3.4126 9.01387 10.7978
2 4.84408 12.0153 6.78055
2 3.4663 10.915 8.42963
2 8.38068 11.5515 9.43181
3 7.99699 9.99331 12.0722
1 6.97607 9.86098 11.481
1 2.79974 12.6902 21.5055
2 2.54137 12.5983 42.9525
2 9.81226 5.01996 16.6791
1 6.32149 5.08138 18.5913
1 6.38288 5.38152 17.1833
1 7.66523 5.33817 16.4823
1 8.86279 5.13673 17.1979
1 8.78004 4.87985 18.6166
1 7.50628 4.85809 19.3207
1 9.54923 6.14107 -0.0529854
2 8.15818 10.9644 20.061
3 9.88992 12.8684 19.2247
2 3.20445 6.34792 14.998
1 4.1709 6.81959 14.6654
1 4.31534 7.63087 13.5172
2 7.6951 10.4872 22.4391
1 5.54172 8.25927 13.0434
3 5.25208 5.75324 16.6133
1 6.58374 8.14684 14.0222
2 7.54108 8.69836 13.9147
1 6.39978 7.45605 15.2575
2 7.28095 7.46628 15.9287
1 5.29429 6.6128 15.5745
2 7.67094 5.51593 15.4361
2 5.34346 5.06113 19.0537
1 2.54083 12.2909 22.8451
1 9.35568 11.7955 23.2814
2 3.28292 12.6859 23.5997
1 8.56827 11.1951 22.1954
2 7.35803 13.1042 20.4455
1 8.84569 11.4144 20.8349
2 3.4924 7.73935 12.8999
1 7.28827 5.74717 28.8084
1 6.02369 5.3075 28.2233
1 5.90057 12.9731 27.0482
1 7.12288 12.6924 26.2841
1 8.50927 5.54463 28.0488
1 8.43063 4.86732 26.7949
1 7.28815 12.0624 24.9182
4 8.80563 11.9017 24.6855
1 9.64405 5.93755 44.6113
2 5.05257 5.5865 28.7225
2 4.91828 12.6133 26.6377
2 9.48957 5.88779 28.3811
3 2.66234 12.9094 25.8841
1 9.52011 12.6759 25.8649
3 6.33902 11.6772 24.2778
2 7.30432 10.1428 36.3383
1 7.26116 6.3952 30.1419
1 5.96047 6.62797 30.7616
1 5.78155 7.18617 32.0242
1 6.93063 7.76984 32.6827
1 8.45435 6.79361 30.8225
1 8.30125 7.54525 32.0856
1 7.0075 8.66547 33.9226
4 8.52726 8.99824 34.1073
3 6.09955 8.90584 34.6758
2 5.10584 6.20251 30.3475
2 4.7716 7.30227 32.5076
2 9.45205 6.58098 30.3386
3 2.42579 8.13985 32.7468
1 9.2845 8.26241 32.9209
1 8.43879 5.77297 43.7847
3 8.2854 5.76683 42.4566
2 7.97945 5.98225 39.8974
1 2.96947 12.0322 40.9107
1 2.54537 12.108 39.5351
1 9.4998 12.9763 39.1909
1 8.70127 5.25794 40.1466
1 9.07129 5.12964 41.557
1 2.19832 12.715 41.8918
2 6.30685 5.49923 0.394607
2 2.51858 6.26273 0.386572
2 2.5534 6.12031 44.1193
2 8.55156 10.9935 38.4266
1 9.06743 10.7297 37.4768
1 8.40467 10.2766 36.3223
1 9.13712 9.84452 35.161
3 3.15273 11.3161 38.6287
1 2.52927 10.0467 35.2298
2 3.08451 9.88652 34.32
1 3.22578 10.5191 36.3634
2 4.35126 10.7868 36.3778
1 2.47036 10.8683 37.5554
2 9.24021 13.0868 38.0993
2 3.8987 11.4516 41.0969
1 7.26737 5.71294 44.6037
1 7.2728 5.70076 -0.0321637
2 6.36564 5.54669 44.0283
1 8.40307 5.9418 0.788673
2 3.7676 13.1732 21.2492
258
 Atoms. Timestep: 16
2 8.67124 8.68114 45.6642
1 9.33348 9.43441 0.0347889
1 9.69467 10.6015 45.3069
2 3.87668 7.52234 3.01692
2 9.45347 8.27511 1.8354
2 4.98095 11.1127 3.30196
1 9.79307 9.18712 1.35458
1 2.70025 11.3879 -0.143368
2 2.99355 12.2607 45.3805
1 2.78767 10.0196 1.95161
1 4.42606 8.4767 3.14387
1 3.30985 11.0999 1.10874
2 5.11387 8.69084 2.33524
1 4.09798 10.8607 3.92729
2 5.18396 8.39704 3.97744
2 4.11189 11.7495 1.49234
1 3.37001 9.61269 3.31089
2 3.36489 11.6806 4.03326
2 4.51383 10.676 4.95476
1 2.30876 9.15943 4.29031
2 3.51121 7.52477 5.28842
2 8.94133 10.7226 3.62102
1 2.57014 8.09747 5.25273
1 9.0893 9.89925 4.33127
1 9.65464 7.80922 6.24888
1 8.12256 9.54765 5.29451
2 9.86932 7.02548 6.97185
2 7.20153 10.1085 5.33867
1 8.3735 8.4974 6.26708
3 7.29043 8.18321 7.00543
2 9.40023 8.28943 8.66437
1 7.3954 7.66801 8.2355
1 8.59497 7.65389 9.04799
2 5.22973 7.17633 8.30761
1 6.2129 7.02863 8.76863
1 8.67354 6.89045 10.2511
2 9.57579 6.94468 10.8597
1 6.26909 6.21028 9.93447
1 7.54022 6.07699 10.6734
1 5.10235 5.42219 10.6233
3 3.95294 5.41678 10.3533
1 7.26738 5.10793 11.8473
4 5.7826 12.9603 11.7707
3 8.05865 4.87484 12.7076
2 3.19958 11.9824 11.7579
1 5.09135 12.1563 12.8478
1 3.71234 11.8081 12.7089
2 6.86829 11.8379 14.0892
1 5.76455 11.7263 14.0359
1 3.04748 11.1738 13.7929
2 1.98434 11.0295 13.6674
1 5.19547 10.9338 15.0785
1 3.78468 10.7443 14.9412
3 8.28177 10.5439 15.5647
4 5.9402 10.2938 16.2242
2 3.33952 10.1669 15.768
1 7.45441 10.1367 16.338
3 4.19625 9.64665 17.8948
1 5.30553 9.61011 17.5166
1 7.7782 9.3815 17.6191
1 6.49651 9.01026 18.2983
2 1.99531 9.17444 17.6841
1 9.03922 8.9508 18.1759
1 6.57097 8.32195 19.5613
2 5.62865 8.12728 20.053
1 9.0256 8.14157 19.3465
1 7.81681 7.90613 20.1125
2 9.95905 7.65632 19.6334
2 2.02687 8.89814 21.1423
3 7.72529 7.49487 21.4213
1 9.86825 8.39539 22.1076
1 8.75096 7.49213 22.2908
2 3.57475 9.2433 23.032
2 4.79829 6.83198 25.251
2 5.13109 9.2944 24.6665
1 2.69815 8.62794 23.1962
1 8.55513 6.87415 23.5979
2 7.70331 6.24132 23.8154
1 4.2205 7.30787 26.0997
1 2.45988 8.09438 24.5322
1 4.33733 9.64992 25.344
2 4.98226 7.63647 26.8191
1 9.35716 7.19345 24.704
2 3.81724 10.4962 24.8915
2 3.61584 6.56333 26.6363
2 4.93395 10.0013 26.2021
1 3.3119 8.51815 25.6932
2 9.09914 6.73847 25.6649
1 2.50342 8.9686 26.9291
2 8.85846 9.35742 25.5032
2 4.04386 8.97376 28.5887
1 9.17899 9.37878 26.5791
1 2.99491 9.16078 28.2989
1 8.29361 9.82439 27.6027
1 2.08944 9.66208 29.2615
2 7.3389 10.2786 27.2924
2 2.42978 9.75369 30.289
1 8.74525 10.0436 28.9712
3 7.81516 10.4712 29.8484
2 2.17732 11.667 30.621
1 8.09907 11.1495 30.9709
1 9.37431 11.7803 31.287
2 6.12021 10.828 31.7475
1 7.04398 11.3528 31.9251
1 9.56452 12.4951 32.4992
2 2.51693 12.8937 32.6793
1 7.17772 12.1098 33.13
1 8.51396 12.7189 33.4556
1 6.21582 12.4653 34.2811
3 5.03283 12.4494 34.231
1 8.52346 4.97193 34.8299
4 7.03038 13.1792 35.3681
3 9.43933 5.51447 35.3622
1 6.34333 5.92659 36.1161
2 8.17516 6.60203 37.0999
2 4.2908 5.60225 35.4684
1 7.10056 6.78829 36.9665
1 4.9478 6.25003 36.0876
1 6.60705 7.8578 37.7659
1 4.34786 7.32668 36.7947
2 3.2499 7.51488 36.7268
3 5.62776 9.9856 39.8974
1 5.20367 8.11545 37.6203
4 7.41214 8.64702 38.7679
1 6.69187 9.42314 39.936
3 9.65651 7.60441 38.8056
1 8.79317 8.19098 39.3694
2 4.69557 8.92315 38.1499
1 7.63143 9.48685 41.1382
1 8.91216 8.74374 40.7759
2 6.73482 10.7931 42.6567
1 7.59288 10.1669 42.3874
1 2.03634 8.67974 41.6497
2 2.97177 8.19 41.3239
1 8.74562 10.1128 43.2569
1 9.92225 9.34633 42.8904
3 8.90241 10.9944 44.257
2 2.7186 9.30846 43.614
1 7.58419 12.5595 6.90821
1 9.01668 12.8366 6.95699
1 9.7368 4.94372 5.83646
1 9.114 5.18508 4.5603
1 6.91372 12.989 5.68462
1 7.64721 4.97043 4.49461
1 9.70308 5.56578 3.19933
4 8.43933 5.70876 2.26437
1 9.92877 12.2868 20.4547
2 9.59584 12.7345 7.89439
2 2.7697 5.09832 5.98078
2 5.83309 12.9739 5.58456
3 6.06917 4.9544 2.62762
1 7.14348 5.2303 3.04196
3 2.82665 5.45939 2.91406
1 6.77084 11.8596 7.9732
1 5.35667 11.6549 7.69417
1 4.52074 11.0478 8.65189
1 5.1004 10.4392 9.83916
1 7.32392 11.3859 9.23845
1 6.55289 10.6088 10.1609
1 4.48517 9.50928 10.8937
4 5.67367 9.01385 11.7894
3 3.4066 9.01489 10.8002
2 4.85001 12.0141 6.78297
2 3.46411 10.9159 8.43163
2 8.38131 11.551 9.43512
3 7.996 9.99133 12.0706
1 6.97973 9.87326 11.4654
1 2.80781 12.6791 21.4916
2 2.53688 12.6011 42.9452
2 9.81434 5.02451 16.6776
1 6.31747 5.07794 18.5972
1 6.40685 5.37749 17.1774
1 7.65959 5.34231 16.4913
1 8.85973 5.13045 17.1927
1 8.76756 4.87466 18.6274
1 7.50146 4.86297 19.3305
1 9.57559 6.13489 -0.0627927
2 8.16508 10.9662 20.066
3 9.91403 12.8727 19.2223
2 3.20986 6.35161 14.9871
1 4.16792 6.81533 14.6782
1 4.33724 7.63172 13.5138
2 7.70578 10.5002 22.438
1 5.53113 8.25629 13.0556
3 5.22635 5.75238 16.6108
1 6.57957 8.15774 14.0115
2 7.53707 8.69463 13.9095
1 6.42667 7.45368 15.2633
2 7.27796 7.46779 15.9297
1 5.27819 6.61849 15.5643
2 7.6741 5.51336 15.4262
2 5.34089 5.06151 19.0596
1 2.55636 12.3163 22.8491
1 9.3319 11.7706 23.2786
2 3.27845 12.6799 23.5946
1 8.56739 11.1921 22.2123
2 7.36812 13.1029 20.4338
1 8.83091 11.4057 20.832
2 3.47795 7.74079 12.891
1 7.30234 5.7493 28.8092
1 5.99359 5.32115 28.2418
1 5.89336 12.9556 27.0232
1 7.11057 12.6973 26.284
1 8.51719 5.54843 28.0495
1 8.44223 4.85745 26.7966
1 7.28142 12.0509 24.9157
4 8.80796 11.9037 24.6807
1 9.63761 5.95011 44.6005
2 5.05937 5.57997 28.7211
2 4.92382 12.6183 26.6421
2 9.48915 5.88806 28.3864
3 2.65619 12.9082 25.89
1 9.52747 12.6766 25.8493
3 6.34706 11.6794 24.2755
2 7.30642 10.1457 36.3386
1 7.2758 6.39929 30.1409
1 5.95321 6.61107 30.7585
1 5.76677 7.20356 32.0489
1 6.9327 7.77584 32.6908
1 8.46232 6.79907 30.8246
1 8.2949 7.5303 32.0595
1 7.00183 8.6596 33.9284
4 8.52489 9.00132 34.1027
3 6.10291 8.90691 34.6697
2 5.09087 6.2005 30.3371
2 4.7766 7.29966 32.5028
2 9.44402 6.58669 30.3482
3 2.43753 8.14248 32.7465
1 9.29363 8.26464 32.9286
1 8.45833 5.77255 43.7914
3 8.2897 5.76324 42.4393
2 7.9656 5.98303 39.8912
1 2.97006 12.0352 40.9092
1 2.55305 12.1004 39.5364
1 9.48379 12.9782 39.1685
1 8.71726 5.26068 40.1687
1 9.06787 5.13481 41.5619
1 2.2088 12.7065 41.8976
2 6.29976 5.49996 0.402507
2 2.51785 6.26761 0.390678
2 2.55908 6.11695 44.117
2 8.54546 10.9914 38.4205
1 9.06614 10.7377 37.5025
1 8.39045 10.269 36.3146
1 9.13866 9.84062 35.1633
3 3.1564 11.3133 38.627
1 2.53471 10.0535 35.2294
2 3.09067 9.88339 34.3172
1 3.23533 10.5315 36.3726
2 4.33562 10.7769 36.3727
1 2.48797 10.8709 37.5479
2 9.24235 13.0895 38.1067
2 3.89156 11.4538 41.105
1 7.25437 5.70785 44.5926
1 7.24894 5.70057 -0.0394945
2 6.3574 5.54638 44.03
1 8.41337 5.9406 0.780052
2 3.76065 13.1748 21.2504
