ITEM: TIMESTEP
0
ITEM: NUMBER OF ATOMS
258
ITEM: BOX BOUNDS xy xz yz pp pp pp
1.9855364180644246e+00 1.0014463581934866e+01 0.0000000000000000e+00
4.8164770369880916e+00 1.3183522963012059e+01 0.0000000000000000e+00
-1.9360915935843437e-01 4.5878076159358940e+01 0.0000000000000000e+00
ITEM: ATOMS id q xu yu zu
1 0.143441 0.641545 8.67373 -0.410489
2 -0.144707 1.31491 9.45478 0.0363466
3 0.234852 1.65491 10.5922 -0.774957
4 0.184852 3.87044 7.52295 3.01989
5 0.157161 1.42872 8.28172 1.82692
6 0.163262 4.9839 11.1075 3.29989
7 -0.103642 1.74596 9.17143 1.36103
8 -0.144716 2.71248 11.404 -0.148521
9 0.142195 2.9845 12.2484 -0.685321
10 -0.00972042 2.79678 10.0315 1.96742
11 -0.308235 4.41375 8.49324 3.12996
12 -0.0943861 3.31631 11.0913 1.11084
13 0.136896 5.10916 8.68967 2.35093
14 -0.300581 4.08213 10.8647 3.91712
15 0.136225 5.19591 8.39545 3.97934
16 0.167445 4.11451 11.752 1.49547
17 0.0153091 3.38721 9.60454 3.29578
18 0.175095 3.36536 11.674 4.03463
19 0.112641 4.51912 10.6778 4.96272
20 -0.00464019 2.29259 9.16396 4.29309
21 0.128899 3.51031 7.52059 5.29436
22 0.156684 0.917009 10.722 3.61999
23 -0.104402 2.57958 8.09465 5.2423
24 -0.107053 1.05865 9.90233 4.32929
25 -0.167189 1.62046 7.81282 6.25486
26 -0.133592 0.0869557 9.54212 5.30106
27 0.141204 1.84118 7.02581 6.96954
28 0.148493 -0.820098 10.1066 5.33812
29 0.254222 0.35179 8.49333 6.26549
30 -0.510387 -0.740511 8.18759 6.99413
31 0.160166 1.36385 8.29056 8.65671
32 0.259914 -0.627565 7.67009 8.23578
33 -0.143992 0.581772 7.65599 9.05793
34 0.167978 -2.80057 7.17709 8.31318
35 -0.112138 -1.81955 7.02972 8.76069
36 -0.0514459 0.666947 6.9025 10.2465
37 0.195064 1.5402 6.94654 10.8572
38 -0.0362484 -1.76245 6.21169 9.92811
39 -0.0445421 -0.487665 6.07589 10.671
40 0.412897 -2.92852 5.41751 10.6333
41 -0.483651 -4.08031 5.41315 10.3565
42 0.415945 -0.77306 5.08699 11.867
43 -0.42518 -2.25661 4.58741 11.7756
44 -0.477057 0.0248118 4.8747 12.705
45 0.201131 -4.82501 3.6098 11.758
46 0.190074 -2.94459 3.79553 12.833
47 -0.107141 -4.31144 3.45061 12.6977
48 0.239233 -1.15184 3.46675 14.0892
49 -0.127013 -2.26398 3.37321 14.038
50 -0.071655 -5.00407 2.80066 13.7907
51 0.208932 -6.03097 2.67094 13.6631
52 0.189762 -2.83635 2.56369 15.0731
53 -0.102939 -4.24303 2.37656 14.9469
54 -0.483418 0.254546 2.17969 15.5602
55 -0.419457 -2.09044 1.93267 16.2143
56 0.195144 -4.68245 1.79617 15.7736
57 0.395894 -0.571246 1.7724 16.3241
58 -0.480711 -3.86161 1.28296 17.9023
59 0.382962 -2.70627 1.23242 17.5246
60 -0.0661785 -0.2614 1.01446 17.6241
61 -0.0570007 -1.54168 0.635421 18.3002
62 0.188628 2.01064 0.811235 17.6813
63 -0.0732882 1.02107 0.575081 18.1905
64 -0.13683 -1.45702 -0.0498697 19.5789
65 0.163859 -2.39475 -0.235477 20.0426
66 -0.169182 1.00504 -0.221081 19.3473
67 0.254418 -0.217342 -0.468628 20.1271
68 0.155753 1.92687 -0.713141 19.6291
69 0.149819 2.02541 0.531757 21.1397
70 -0.535093 -0.290535 -0.860818 21.4132
71 -0.15322 1.84432 0.0408209 22.0982
72 0.268203 0.703766 -0.888882 22.2855
73 0.127801 3.57296 0.870233 23.0332
74 0.140382 4.80764 -1.54078 25.2469
75 0.142327 5.13351 0.928894 24.6698
76 -0.102815 2.70006 0.26543 23.1957
77 -0.140959 0.527425 -1.50191 23.6002
78 0.157631 -0.321025 -2.11901 23.8202
79 -0.299605 4.20217 -1.04335 26.0955
80 -0.00837123 2.46737 -0.274234 24.5438
81 -0.293986 4.32148 1.2751 25.3531
82 0.118616 4.9804 -0.731341 26.8173
83 -0.0989159 1.32435 -1.17159 24.7065
84 0.178605 3.81971 2.12176 24.8936
85 0.160208 3.61735 -1.80028 26.6369
86 0.141876 4.93762 1.63386 26.1955
87 0.0186718 3.31396 0.157852 25.6901
88 0.150699 1.0667 -1.6334 25.6636
89 -0.00553828 2.50344 0.595349 26.9237
90 0.160008 0.828017 0.989266 25.4865
91 0.113545 4.04654 0.610414 28.5914
92 -0.0863566 1.15487 1.01727 26.5877
93 -0.119502 3.00329 0.790074 28.3008
94 -0.126251 0.272148 1.43443 27.619
95 -0.162746 2.08887 1.2976 29.2555
96 0.156746 -0.694245 1.92411 27.2878
97 0.148651 2.42766 1.38599 30.2892
98 0.259987 0.7169 1.68101 28.9649
99 -0.506268 -0.219301 2.10519 29.852
100 0.132895 2.17063 3.29851 30.6271
101 0.274102 0.0824286 2.7838 30.9672
102 -0.168852 1.34494 3.41619 31.2873
103 0.172026 -1.89891 2.46282 31.751
104 -0.120194 -0.989659 2.98436 31.9151
105 -0.0695653 1.54327 4.1194 32.4902
106 0.165843 2.50742 4.52251 32.6749
107 -0.0410089 -0.874955 3.74179 33.146
108 -0.0362725 0.495431 4.36072 33.4461
109 0.401572 -1.79556 4.0904 34.2725
110 -0.48352 -3.01361 4.08891 34.2362
111 0.387571 0.492077 4.96908 34.8371
112 -0.436881 -0.992595 4.79935 35.3661
113 -0.457217 1.4245 5.52422 35.3716
114 0.183682 -1.68946 5.92955 36.1149
115 0.214905 0.148069 6.60333 37.1046
116 0.223818 -3.74127 5.59357 35.462
117 -0.136255 -0.926936 6.78023 36.9561
118 -0.0901499 -3.08029 6.25091 36.088
119 0.172861 -1.41991 7.87369 37.7834
120 -0.0536233 -3.68849 7.35156 36.809
121 0.197239 -4.78592 7.51115 36.7246
122 -0.47689 -2.3767 9.97414 39.8976
123 -0.0970239 -2.80506 8.10766 37.6201
124 -0.461977 -0.61186 8.64578 38.7829
125 0.399678 -1.34819 9.42022 39.9207
126 -0.468665 1.62515 7.60649 38.808
127 0.386908 0.74518 8.19745 39.3719
128 0.212079 -3.33924 8.92548 38.1496
129 -0.0433337 -0.399539 9.4828 41.1302
130 -0.033441 0.883662 8.74723 40.7813
131 0.160083 -1.2953 10.7972 42.658
132 -0.121083 -0.436632 10.1578 42.3784
133 -0.0651624 2.02319 8.67499 41.6418
134 0.150875 2.97831 8.19049 41.3197
135 0.25611 0.707565 10.1164 43.2614
136 -0.150625 1.8957 9.34705 42.8797
137 -0.494311 0.876802 10.9944 44.2588
138 0.122246 2.71955 9.30826 43.6205
139 -0.000637689 7.57845 12.5625 6.89861
140 -0.114973 9.02104 12.8327 6.95394
141 -0.106064 9.74495 13.3146 5.83273
142 -0.0398761 9.09737 13.5534 4.57112
143 -0.0985958 6.92794 12.9945 5.68257
144 -0.0455373 7.64388 13.3309 4.49459
145 0.406374 9.70508 13.9453 3.16129
146 -0.436711 8.44857 14.0677 2.262
147 0.270299 9.92603 3.91464 20.4427
148 0.122357 9.60184 12.7401 7.89973
149 0.114986 10.7908 13.4627 5.98524
150 0.125358 5.83072 12.9778 5.58321
151 -0.495872 6.07602 13.3206 2.63056
152 0.409884 7.14538 13.6018 3.02814
153 -0.499341 10.8498 13.823 2.91839
154 0.00126824 6.77915 11.8554 7.97358
155 -0.119082 5.34821 11.6466 7.68645
156 -0.0785872 4.52216 11.0553 8.66204
157 -0.0327695 5.1046 10.4376 9.83433
158 -0.0826545 7.31955 11.3831 9.2562
159 -0.0134253 6.54347 10.603 10.1618
160 0.407496 4.48637 9.51042 10.9095
161 -0.423337 5.67107 9.03264 11.7586
162 -0.469639 3.4126 9.01387 10.7978
163 0.09694 4.84408 12.0153 6.78055
164 0.127504 3.4663 10.915 8.42963
165 0.152222 8.38068 11.5515 9.43181
166 -0.455594 7.99699 9.99331 12.0722
167 0.414193 6.97607 9.86098 11.481
168 -0.142106 10.8287 4.32311 21.5055
169 0.147759 10.5703 12.5983 42.9525
170 0.174085 9.81226 5.01996 16.6791
171 -0.12222 6.32149 5.08138 18.5913
172 0.275713 6.38288 5.38152 17.1833
173 -0.156317 7.66523 5.33817 16.4823
174 -0.122282 8.86279 5.13673 17.1979
175 0.275286 8.78004 4.87985 18.6166
176 -0.143499 7.50628 4.85809 19.3207
177 -0.118205 9.54923 14.5081 46.0187
178 0.162661 8.15818 2.59732 20.061
179 -0.502939 9.88992 4.50137 19.2247
180 0.151898 3.20445 6.34792 14.998
181 -0.134085 4.1709 6.81959 14.6654
182 -0.111767 4.31534 7.63087 13.5172
183 0.169112 7.6951 2.12011 22.4391
184 0.178517 5.54172 8.25927 13.0434
185 -0.500622 5.25208 5.75324 16.6133
186 -0.0978224 6.58374 8.14684 14.0222
187 0.202403 7.54108 8.69836 13.9147
188 -0.158157 6.39978 7.45605 15.2575
189 0.146715 7.28095 7.46628 15.9287
190 0.258032 5.29429 6.6128 15.5745
191 0.171241 7.67094 5.51593 15.4361
192 0.171311 5.34346 5.06113 19.0537
193 -0.117239 10.5698 3.92383 22.8451
194 0.170124 9.35568 3.42842 23.2814
195 0.183101 11.3118 4.31885 23.5997
196 -0.105819 8.56827 2.82807 22.1954
197 0.161297 7.35803 4.73719 20.4455
198 -0.15574 8.84569 3.04739 20.8349
199 0.188503 3.4924 7.73935 12.8999
200 0.00343373 7.28827 5.74717 28.8084
201 -0.114391 6.02369 5.3075 28.2233
202 -0.0942872 5.90057 4.60602 27.0482
203 -0.0554905 7.12288 4.32533 26.2841
204 -0.103222 8.50927 5.54463 28.0488
205 -0.0670044 8.43063 4.86732 26.7949
206 0.384 7.28815 3.69539 24.9182
207 -0.4368 8.80563 3.53465 24.6855
208 -0.168649 9.64405 14.3046 44.6113
209 0.0983672 5.05257 5.5865 28.7225
210 0.166789 4.91828 4.24625 26.6377
211 0.121505 9.48957 5.88779 28.3811
212 -0.51962 10.6913 4.54232 25.8841
213 0.403757 9.52011 4.30883 25.8649
214 -0.501718 6.33902 3.31015 24.2778
215 0.199657 7.30432 10.1428 36.3383
216 0.00666516 7.26116 6.3952 30.1419
217 -0.115314 5.96047 6.62797 30.7616
218 -0.0706878 5.78155 7.18617 32.0242
219 -0.0346889 6.93063 7.76984 32.6827
220 -0.0814406 8.45435 6.79361 30.8225
221 -0.0318618 8.30125 7.54525 32.0856
222 0.396117 7.0075 8.66547 33.9226
223 -0.411499 8.52726 8.99824 34.1073
224 -0.451345 6.09955 8.90584 34.6758
225 0.112675 5.10584 6.20251 30.3475
226 0.18436 4.7716 7.30227 32.5076
227 0.127543 9.45205 6.58098 30.3386
228 -0.492129 10.4547 8.13985 32.7468
229 0.411832 9.2845 8.26241 32.9209
230 0.285531 8.43879 14.14 43.7847
231 -0.512192 8.2854 14.1339 42.4566
232 0.180243 7.97945 14.3493 39.8974
233 -0.127619 10.9984 12.0322 40.9107
234 0.258396 10.5743 12.108 39.5351
235 -0.136895 9.4998 12.9763 39.1909
236 -0.114837 8.70127 13.625 40.1466
237 0.267632 9.07129 13.4967 41.557
238 -0.142816 10.2273 12.715 41.8918
239 0.170669 6.30685 13.8663 46.4663
240 0.151074 10.5475 14.6298 46.4583
241 0.11595 10.5823 14.4874 44.1193
242 0.17311 8.55156 10.9935 38.4266
243 -0.128439 9.06743 10.7297 37.4768
244 -0.0862858 8.40467 10.2766 36.3223
245 0.171554 9.13712 9.84452 35.161
246 -0.480993 11.1817 11.3161 38.6287
247 -0.0944732 10.5582 10.0467 35.2298
248 0.208548 11.1134 9.88652 34.32
249 -0.113465 11.2547 10.5191 36.3634
250 0.193382 12.3802 10.7868 36.3778
251 0.25299 10.4993 10.8683 37.5554
252 0.176358 9.24021 13.0868 38.0993
253 0.181066 11.9276 11.4516 41.0969
254 -0.148234 7.26737 14.08 44.6037
255 -0.112105 7.2728 14.0678 46.0395
256 0.142022 6.36564 13.9137 44.0283
257 0.184558 8.40307 14.3089 46.8604
258 0.146693 11.7965 4.80615 21.2492
ITEM: TIMESTEP
16
ITEM: NUMBER OF ATOMS
258
ITEM: BOX BOUNDS xy xz yz pp pp pp
1.9855364180644246e+00 1.0014463581934866e+01 0.0000000000000000e+00
4.8164770369880916e+00 1.3183522963012059e+01 0.0000000000000000e+00
-1.9360915935843437e-01 4.5878076159358940e+01 0.0000000000000000e+00
ITEM: ATOMS id q xu yu zu
1 0.145566 0.642315 8.68114 -0.4075
2 -0.145781 1.30455 9.43441 0.0347889
3 0.230759 1.66574 10.6015 -0.764827
4 0.185952 3.87668 7.52234 3.01692
5 0.156411 1.42454 8.27511 1.8354
6 0.163945 4.98095 11.1127 3.30196
7 -0.100016 1.76415 9.18712 1.35458
8 -0.142278 2.70025 11.3879 -0.143368
9 0.139607 2.99355 12.2607 -0.691148
10 -0.0100776 2.78767 10.0196 1.95161
11 -0.309124 4.42606 8.4767 3.14387
12 -0.0951022 3.30985 11.0999 1.10874
13 0.136104 5.11387 8.69084 2.33524
14 -0.302607 4.09798 10.8607 3.92729
15 0.138931 5.18396 8.39704 3.97744
16 0.166817 4.11189 11.7495 1.49234
17 0.0121114 3.37001 9.61269 3.31089
18 0.173665 3.36489 11.6806 4.03326
19 0.114717 4.51383 10.676 4.95476
20 -0.00559741 2.30876 9.15943 4.29031
21 0.128609 3.51121 7.52477 5.28842
22 0.15603 0.912407 10.7226 3.62102
23 -0.102593 2.57014 8.09747 5.25273
24 -0.105243 1.06038 9.89925 4.33127
25 -0.165149 1.62571 7.80922 6.24888
26 -0.134215 0.0936287 9.54765 5.29451
27 0.140994 1.84039 7.02548 6.97185
28 0.147691 -0.827395 10.1085 5.33867
29 0.254039 0.344576 8.4974 6.26708
30 -0.51426 -0.738496 8.18321 7.00543
31 0.159793 1.3713 8.28943 8.66437
32 0.267516 -0.633532 7.66801 8.2355
33 -0.14559 0.566045 7.65389 9.04799
34 0.167462 -2.79919 7.17633 8.30761
35 -0.113908 -1.81602 7.02863 8.76863
36 -0.0500127 0.644616 6.89045 10.2511
37 0.193476 1.54687 6.94468 10.8597
38 -0.0362504 -1.75984 6.21028 9.93447
39 -0.0467094 -0.488703 6.07699 10.6734
40 0.412082 -2.92657 5.42219 10.6233
41 -0.485166 -4.07599 5.41678 10.3533
42 0.405666 -0.76155 5.10793 11.8473
43 -0.414059 -2.24633 4.59327 11.7707
44 -0.469992 0.0297227 4.87484 12.7076
45 0.200319 -4.82935 3.61532 11.7579
46 0.184246 -2.93758 3.78924 12.8478
47 -0.104519 -4.31659 3.44101 12.7089
48 0.239125 -1.16063 3.47089 14.0892
49 -0.127612 -2.26437 3.35922 14.0359
50 -0.0677687 -4.98144 2.80676 13.7929
51 0.207149 -6.04459 2.66242 13.6674
52 0.191413 -2.83346 2.56675 15.0785
53 -0.103852 -4.24425 2.37723 14.9412
54 -0.481375 0.25284 2.17687 15.5647
55 -0.428098 -2.08873 1.92678 16.2242
56 0.194589 -4.68941 1.79981 15.768
57 0.395921 -0.574513 1.7697 16.338
58 -0.497565 -3.83268 1.27961 17.8948
59 0.410368 -2.7234 1.24306 17.5166
60 -0.0663469 -0.250725 1.01445 17.6191
61 -0.0577975 -1.53242 0.643213 18.2983
62 0.188118 1.99531 0.807394 17.6841
63 -0.0745927 1.01029 0.583753 18.1759
64 -0.130958 -1.45796 -0.0450993 19.5613
65 0.163037 -2.40028 -0.239765 20.053
66 -0.167208 0.996668 -0.225473 19.3465
67 0.241558 -0.212119 -0.460916 20.1125
68 0.155503 1.93012 -0.710723 19.6334
69 0.148707 2.02687 0.531091 21.1423
70 -0.521668 -0.303636 -0.872181 21.4213
71 -0.153654 1.83932 0.0283447 22.1076
72 0.259387 0.722031 -0.874914 22.2908
73 0.127171 3.57475 0.876251 23.032
74 0.143094 4.79829 -1.53507 25.251
75 0.143924 5.13109 0.927355 24.6665
76 -0.102347 2.69815 0.260891 23.1962
77 -0.135834 0.526199 -1.49289 23.5979
78 0.157926 -0.325616 -2.12573 23.8154
79 -0.30281 4.2205 -1.05917 26.0997
80 -0.00702149 2.45988 -0.27267 24.5322
81 -0.294483 4.33733 1.28287 25.344
82 0.120219 4.98226 -0.730577 26.8191
83 -0.0999498 1.32823 -1.17359 24.704
84 0.1787 3.81724 2.12911 24.8915
85 0.161499 3.61584 -1.80372 26.6363
86 0.14239 4.93395 1.63427 26.2021
87 0.0132658 3.3119 0.1511 25.6932
88 0.15054 1.07022 -1.62857 25.6649
89 -0.00533112 2.50342 0.601555 26.9291
90 0.161013 0.82953 0.990375 25.5032
91 0.113097 4.04386 0.606712 28.5887
92 -0.0889541 1.15007 1.01174 26.5791
93 -0.118512 2.99491 0.793731 28.2989
94 -0.128261 0.264688 1.45734 27.6027
95 -0.164358 2.08944 1.29503 29.2615
96 0.15807 -0.690031 1.91157 27.2924
97 0.149299 2.42978 1.38664 30.289
98 0.263698 0.716324 1.67652 28.9712
99 -0.508447 -0.213763 2.10416 29.8484
100 0.132578 2.17732 3.29996 30.621
101 0.274419 0.0701446 2.78242 30.9709
102 -0.167037 1.34538 3.41323 31.287
103 0.171429 -1.90871 2.46093 31.7475
104 -0.120925 -0.984948 2.98574 31.9251
105 -0.0677064 1.53559 4.12805 32.4992
106 0.165316 2.51693 4.52662 32.6793
107 -0.03693 -0.851205 3.74271 33.13
108 -0.0404671 0.485034 4.35183 33.4556
109 0.418011 -1.8131 4.09828 34.2811
110 -0.495783 -2.9961 4.08233 34.231
111 0.397696 0.494535 4.97193 34.8299
112 -0.443598 -0.998544 4.81217 35.3681
113 -0.464243 1.4104 5.51447 35.3622
114 0.187078 -1.68559 5.92659 36.1161
115 0.21536 0.146231 6.60203 37.0999
116 0.223133 -3.73813 5.60225 35.4684
117 -0.138527 -0.928366 6.78829 36.9665
118 -0.0916801 -3.08113 6.25003 36.0876
119 0.170135 -1.42188 7.8578 37.7659
120 -0.0523402 -3.68107 7.32668 36.7947
121 0.196667 -4.77903 7.51488 36.7268
122 -0.460029 -2.40117 9.9856 39.8974
123 -0.0981162 -2.82526 8.11545 37.6203
124 -0.44617 -0.616786 8.64702 38.7679
125 0.373789 -1.33705 9.42314 39.936
126 -0.472346 1.62759 7.60441 38.8056
127 0.386631 0.764246 8.19098 39.3694
128 0.213234 -3.33336 8.92315 38.1499
129 -0.0416931 -0.397496 9.48685 41.1382
130 -0.0349783 0.88323 8.74374 40.7759
131 0.160737 -1.29411 10.7931 42.6567
132 -0.121786 -0.436044 10.1669 42.3874
133 -0.0671468 2.03634 8.67974 41.6497
134 0.151585 2.97177 8.19 41.3239
135 0.256808 0.716694 10.1128 43.2569
136 -0.152016 1.89333 9.34633 42.8904
137 -0.490614 0.873485 10.9944 44.257
138 0.123428 2.7186 9.30846 43.614
139 -0.000186976 7.58419 12.5595 6.90821
140 -0.115299 9.01668 12.8366 6.95699
141 -0.103425 9.7368 13.3108 5.83646
142 -0.0458444 9.114 13.5521 4.5603
143 -0.101312 6.91372 12.989 5.68462
144 -0.0446658 7.64721 13.3375 4.49461
145 0.390888 9.70308 13.9328 3.19933
146 -0.420315 8.43933 14.0758 2.26437
147 0.26336 9.92877 3.91977 20.4547
148 0.12257 9.59584 12.7345 7.89439
149 0.113765 10.7986 13.4654 5.98078
150 0.126114 5.83309 12.9739 5.58456
151 -0.491179 6.06917 13.3214 2.62762
152 0.401367 7.14348 13.5973 3.04196
153 -0.490541 10.8556 13.8264 2.91406
154 0.00255568 6.77084 11.8596 7.9732
155 -0.117713 5.35667 11.6549 7.69417
156 -0.0799904 4.52074 11.0478 8.65189
157 -0.0341835 5.1004 10.4392 9.83916
158 -0.0827781 7.32392 11.3859 9.23845
159 -0.0164807 6.55289 10.6088 10.1609
160 0.396909 4.48517 9.50928 10.8937
161 -0.409948 5.67367 9.01385 11.7894
162 -0.467237 3.4066 9.01489 10.8002
163 0.0968436 4.85001 12.0141 6.78297
164 0.127526 3.46411 10.9159 8.43163
165 0.152258 8.38131 11.551 9.43512
166 -0.452392 7.996 9.99133 12.0706
167 0.406571 6.97973 9.87326 11.4654
168 -0.141783 10.8367 4.31202 21.4916
169 0.148387 10.5658 12.6011 42.9452
170 0.173774 9.81434 5.02451 16.6776
171 -0.115435 6.31747 5.07794 18.5972
172 0.258999 6.40685 5.37749 17.1774
173 -0.155072 7.65959 5.34231 16.4913
174 -0.117136 8.85973 5.13045 17.1927
175 0.263971 8.76756 4.87466 18.6274
176 -0.146039 7.50146 4.86297 19.3305
177 -0.119479 9.57559 14.5019 46.0089
178 0.163314 8.16508 2.59912 20.066
179 -0.49226 9.91403 4.5057 19.2223
180 0.153044 3.20986 6.35161 14.9871
181 -0.136917 4.16792 6.81533 14.6782
182 -0.111378 4.33724 7.63172 13.5138
183 0.170592 7.70578 2.13318 22.438
184 0.18298 5.53113 8.25629 13.0556
185 -0.485537 5.22635 5.75238 16.6108
186 -0.0974596 6.57957 8.15774 14.0115
187 0.203442 7.53707 8.69463 13.9095
188 -0.159255 6.42667 7.45368 15.2633
189 0.148763 7.27796 7.46779 15.9297
190 0.252562 5.27819 6.61849 15.5643
191 0.170635 7.6741 5.51336 15.4262
192 0.171664 5.34089 5.06151 19.0596
193 -0.118062 10.5853 3.9493 22.8491
194 0.172162 9.3319 3.40358 23.2786
195 0.183884 11.3074 4.31288 23.5946
196 -0.110258 8.56739 2.82505 22.2123
197 0.163006 7.36812 4.7359 20.4338
198 -0.156853 8.83091 3.03863 20.832
199 0.187158 3.47795 7.74079 12.891
200 0.00505505 7.30234 5.7493 28.8092
201 -0.121854 5.99359 5.32115 28.2418
202 -0.0951333 5.89336 4.5886 27.0232
203 -0.0549911 7.11057 4.33026 26.284
204 -0.104231 8.51719 5.54843 28.0495
205 -0.0667405 8.44223 4.85745 26.7966
206 0.391969 7.28142 3.68382 24.9157
207 -0.443277 8.80796 3.53669 24.6807
208 -0.168556 9.63761 14.3172 44.6005
209 0.102094 5.05937 5.57997 28.7211
210 0.168285 4.92382 4.25124 26.6421
211 0.122262 9.48915 5.88806 28.3864
212 -0.525503 10.6851 4.54116 25.89
213 0.414124 9.52747 4.30957 25.8493
214 -0.50664 6.34706 3.31235 24.2755
215 0.200579 7.30642 10.1457 36.3386
216 0.00721528 7.2758 6.39929 30.1409
217 -0.115643 5.95321 6.61107 30.7585
218 -0.0734227 5.76677 7.20356 32.0489
219 -0.037353 6.9327 7.77584 32.6908
220 -0.0850422 8.46232 6.79907 30.8246
221 -0.0263854 8.2949 7.5303 32.0595
222 0.404069 7.00183 8.6596 33.9284
223 -0.413449 8.52489 9.00132 34.1027
224 -0.456285 6.10291 8.90691 34.6697
225 0.112489 5.09087 6.2005 30.3371
226 0.185852 4.7766 7.29966 32.5028
227 0.128822 9.44402 6.58669 30.3482
228 -0.49148 10.4665 8.14248 32.7465
229 0.408684 9.29363 8.26464 32.9286
230 0.277188 8.45833 14.1396 43.7914
231 -0.510792 8.2897 14.1303 42.4393
232 0.179155 7.9656 14.3501 39.8912
233 -0.12802 10.999 12.0352 40.9092
234 0.259354 10.582 12.1004 39.5364
235 -0.138888 9.48379 12.9782 39.1685
236 -0.113588 8.71726 13.6277 40.1687
237 0.274988 9.06787 13.5019 41.5619
238 -0.145571 10.2377 12.7065 41.8976
239 0.171931 6.29976 13.867 46.4742
240 0.152288 10.5468 14.6347 46.4624
241 0.115844 10.588 14.484 44.117
242 0.174785 8.54546 10.9914 38.4205
243 -0.129901 9.06614 10.7377 37.5025
244 -0.0886633 8.39045 10.269 36.3146
245 0.172063 9.13866 9.84062 35.1633
246 -0.482049 11.1853 11.3133 38.627
247 -0.0946186 10.5636 10.0535 35.2294
248 0.208893 11.1196 9.88339 34.3172
249 -0.118368 11.2643 10.5315 36.3726
250 0.194969 12.3645 10.7769 36.3727
251 0.25691 10.5169 10.8709 37.5479
252 0.178112 9.24235 13.0895 38.1067
253 0.180945 11.9205 11.4538 41.105
254 -0.144123 7.25437 14.0749 44.5926
255 -0.112966 7.24894 14.0676 46.0322
256 0.142284 6.3574 13.9134 44.03
257 0.179292 8.41337 14.3076 46.8517
258 0.14825 11.7896 4.80771 21.2504
