LAMMPS data file via write_data, version 29 Aug 2024, timestep = 0, units = real

258 atoms
4 atom types

1.9855364180644246 10.014463581934866 xlo xhi
4.816477036988092 13.18352296301206 ylo yhi
-0.19360915935843437 45.87807615935894 zlo zhi
0 0 0 xy xz yz

Masses

1 12.0107
2 1.00794
3 15.999
4 14.0067

Atoms # charge

153 3 -0.4993481481547487 2.820869705211692 5.455996885507065 2.9183918663229718 1 1 0
23 1 -0.1044042810995825 2.579584316819413 8.094647945568363 5.242301293733041 0 0 0
257 1 0.1845524768506485 8.403070296405833 5.941804586129971 0.7886728096463161 0 1 1
239 2 0.170671203133506 6.306846355525857 5.499228888604709 0.3946065474097761 0 1 1
4 2 0.1848497292214403 3.870439307199299 7.522954800229547 3.019889369344495 0 0 0
21 2 0.1288988277402197 3.510308097115553 7.5205948220890555 5.294357777807242 0 0 0
255 1 -0.1121060514154356 7.27279988542553 5.700757623735003 -0.032163652088602446 0 1 1
11 1 -0.3082234865749384 4.413748107599176 8.493235905666676 3.129958823508917 0 0 0
15 2 0.1362210468983009 5.1959141627333505 8.395449289207942 3.9793356346617 0 0 0
5 2 0.157161795101637 9.45764470212828 8.281718227207039 1.8269205758795022 -1 0 0
151 3 -0.4958770630957645 6.076018584260412 4.953541494572707 2.630561081896286 0 1 0
152 1 0.4098901957398379 7.145379640674628 5.23479028500165 3.0281365628277106 0 1 0
145 1 0.406381083509956 9.705082017798091 5.578213536789872 3.161288625040279 0 1 0
146 4 -0.4367083556249822 8.448574748042894 5.700691487289587 2.2619965361418934 0 1 0
13 2 0.1368953664570474 5.1091554339264835 8.689665742168959 2.3509342155926993 0 0 0
142 1 -0.03987239784374386 9.097370828647577 5.186394521539547 4.571124752393 0 1 0
240 2 0.1510773139816596 2.5185750536367064 6.262734820169682 0.38657185553283335 1 1 1
144 1 -0.04554264933832823 7.6438782032720365 4.96387322963839 4.494594346134341 0 1 0
177 1 -0.1182030149988449 9.549229924873583 6.14107247545634 -0.0529853936954959 0 1 1
35 1 -0.1121268097011597 6.209376216547627 7.029716573085054 8.760685979445814 -1 0 0
31 2 0.1601683196440902 9.392778067629761 8.290557729540724 8.65670906553445 -1 0 0
36 1 -0.05143659802674634 8.69587439075843 6.902498156264227 10.246487735845085 -1 0 0
38 1 -0.03625329640628906 6.266475152153899 6.211689357049947 9.928114950002195 -1 0 0
30 3 -0.5103809074335698 7.288416062544444 8.187592480677461 6.99412797412863 -1 0 0
37 2 0.195063926321713 9.569127637423156 6.946541021584888 10.857192651418101 -1 0 0
34 2 0.1679738434779641 5.228361589336339 7.177093071757683 8.3131810764164 -1 0 0
27 2 0.1412020176761004 9.870109353020457 7.025805510335999 6.969536789058043 -1 0 0
32 1 0.2599008346009896 7.401362053627419 7.670086802561007 8.235781852643854 -1 0 0
33 1 -0.1439906552212225 8.610699323875421 7.655993341168667 9.05793290978504 -1 0 0
39 1 -0.04454973542361249 7.541262037535737 6.075888975956721 10.671038929979558 -1 0 0
25 1 -0.1671863794109746 9.649386704058454 7.812824001900921 6.254860983853706 -1 0 0
40 1 0.4129026064288399 5.100406740019622 5.417509178231018 10.633305818876014 -1 0 0
29 1 0.2542205094263522 8.380717140782156 8.493332184309038 6.265489000832131 -1 0 0
41 3 -0.4836534507198308 3.948614898429634 5.4131513939343945 10.356520730990596 -1 0 0
149 2 0.1149875616868601 2.76184705166833 5.095690129649976 5.985242121564823 1 1 0
141 1 -0.1060655643456708 9.744948529992303 4.9475540612022595 5.832726361608268 0 1 0
184 1 0.1785142682247431 5.541723963779135 8.259270199031587 13.04340752500017 0 0 0
188 1 -0.1581633401559948 6.399778749122019 7.45604889041434 15.257497948120843 0 0 0
186 1 -0.09781792706671034 6.583738780952867 8.14684093423323 14.02220260919502 0 0 0
181 1 -0.1340906425054242 4.1708965832189016 6.819590069771219 14.665420556351258 0 0 0
191 2 0.1712412593605047 7.670940652409516 5.515927177447969 15.43608105109102 0 0 0
199 2 0.1885056897077635 3.4924021401471763 7.739353007964369 12.899886098724352 0 0 0
182 1 -0.1117696396459941 4.315341127225002 7.630869733110771 13.517222195302525 0 0 0
189 2 0.1467177136537255 7.280950645278205 7.466283857135691 15.928701456123651 0 0 0
170 2 0.1740840424885715 9.812261056118434 5.019955774285081 16.679056168300665 0 0 0
190 1 0.2580396902982068 5.294285727214694 6.612801430210821 15.574541974416354 0 0 0
185 3 -0.5006229744278081 5.252080282920952 5.7532440680457375 16.613258787455756 0 0 0
180 2 0.1519009214529796 3.2044536007260946 6.347920901815609 14.997992966956392 0 0 0
42 1 0.4159491220100126 7.255867080014668 5.086991240162513 11.867037635386303 -1 0 0
173 1 -0.1563194207476695 7.665231406920427 5.338166733944375 16.4822908079921 0 0 0
187 2 0.20240631968405 7.54107608214194 8.698360604273429 13.914718686112638 0 0 0
44 3 -0.4770597886005066 8.053738925393787 4.874697907469354 12.70495223188776 -1 0 0
72 1 0.268209645291471 8.732693288594241 7.478164366391008 22.285483612109523 -1 -1 0
66 1 -0.1691840702544365 9.033968598204396 8.145964832892165 19.347294145495464 -1 -1 0
171 1 -0.1222148428641129 6.32148760539429 5.081384172722095 18.591265272245728 0 0 0
192 2 0.1713101114025275 5.343464092125866 5.061134942936355 19.053667485792634 0 0 0
71 1 -0.153221976485699 9.87324524127662 8.407866779193819 22.098204333297154 -1 -1 0
68 2 0.1557556171408003 9.955798384566595 7.653905117723283 19.629140523626784 -1 -1 0
176 1 -0.1435015143998493 7.506284486229918 4.858092358538647 19.320697386422285 0 0 0
65 2 0.1638543928172178 5.63417883218131 8.131569224464469 20.04263600298988 -1 -1 0
70 3 -0.5350883214740663 7.738391749982912 7.506228033303783 21.413217954056503 -1 -1 0
67 1 0.2544078104741992 7.811584957073209 7.898417490347256 20.12713822448711 -1 -1 0
172 1 0.2757070671441456 6.382880098192549 5.381519331058193 17.183284101942718 0 0 0
174 1 -0.1222793837031864 8.862791807834522 5.136726159984022 17.197886866370826 0 0 0
64 1 -0.1368209671939419 6.571911587998867 8.317176231034392 19.578930404560246 -1 -1 0
63 1 -0.07327827931871664 9.049994611480248 8.942126606289282 18.190502678306927 -1 -1 0
69 2 0.1498184550336446 2.0254121644035923 8.898802715049726 21.139713166490633 0 -1 0
175 1 0.2752849599312083 8.780035516958836 4.8798534616152365 18.616594934993415 0 0 0
204 1 -0.1032253321149334 8.50926674498728 5.544631308581936 28.048836765665687 0 0 0
74 2 0.1403816442984455 4.80764086366897 6.826263549301165 25.246904136396722 0 -1 0
82 2 0.1186139757869585 4.980398321370366 7.635704849894012 26.81733407845939 0 -1 0
77 1 -0.140959160361157 8.556352247119353 6.865131013042516 23.6002396878947 -1 -1 0
85 2 0.1602071263779165 3.6173518224074037 6.566770386219117 26.63693580303325 0 -1 0
83 1 -0.09891387869110427 9.353279714633135 7.1954544639457865 24.70652410153677 -1 -1 0
88 2 0.1507001965626696 9.095629126689762 6.733648000916231 25.663598804304065 -1 -1 0
79 1 -0.2995937861056461 4.20217038766333 7.323697548088951 26.09545482202324 0 -1 0
78 2 0.1576320491882245 7.707902188120621 6.24803988357137 23.82017161385148 -1 -1 0
80 1 -0.008374568430012004 2.4673707131057605 8.092811594727646 24.543847588751074 0 -1 0
87 1 0.01866574904049319 3.3139565575933636 8.524898079643947 25.69011355229151 0 -1 0
201 1 -0.1143973366592397 6.023689934220959 5.307499125175788 28.22328495380507 0 0 0
76 1 -0.1028146291969734 2.7000553635632976 8.632476342769333 23.195677409753735 0 -1 0
211 2 0.1215045148831146 9.489569488345218 5.887789411420764 28.38107963143975 0 0 0
89 1 -0.005538824086541449 2.503435457197486 8.962395099482379 26.923708446874326 0 -1 0
205 1 -0.0670088994524481 8.430625050245173 4.867320376715682 26.794915222458904 0 0 0
91 2 0.1135453383543233 4.046541897117416 8.977459436846262 28.591441316003998 0 -1 0
216 1 0.006666999286681127 7.261158919450844 6.39519684307145 30.14185704935758 0 0 0
218 1 -0.07069207874420541 5.7815477415785175 7.18617361520743 32.02421995242682 0 0 0
200 1 0.003439602406800794 7.28826817922608 5.747173842543213 28.808407111236633 0 0 0
226 2 0.1843642309129225 4.771603206689893 7.302267085772643 32.50757751679818 0 0 0
229 1 0.4118438326634088 9.284497976980944 8.262411278218073 32.92091383658115 0 0 0
228 3 -0.4921369098897513 2.4257871468186036 8.13984713330479 32.746846789832574 1 0 0
220 1 -0.08144127339233002 8.454351059486292 6.79360852781825 30.82246792288315 0 0 0
227 2 0.1275439175962141 9.452045436529492 6.580984662633542 30.338597539860398 0 0 0
219 1 -0.03468474481782816 6.9306319908677585 7.76984097528339 32.68274146242108 0 0 0
209 2 0.09837002758015095 5.0525658582640665 5.586495293533437 28.72254778018457 0 0 0
225 2 0.1126758989775754 5.105840729745852 6.202506608234723 30.347476563389733 0 0 0
217 1 -0.1153132671020393 5.960467995850321 6.627970004171689 30.761649700580254 0 0 0
221 1 -0.03186727911257087 8.301246784172362 7.545250062147698 32.08564332793863 0 0 0
222 1 0.3961232370577622 7.007500787523267 8.665465677707733 33.922617785596756 0 0 0
223 4 -0.4114997256313055 8.527260230578035 8.998239138860388 34.107255243171366 0 0 0
111 1 0.3875746184174519 8.521004341723605 4.969076903241418 34.83711325761166 -1 0 0
224 3 -0.4513507561301478 6.099547618041954 8.905839671695148 34.675760438211526 0 0 0
118 1 -0.09015242225006456 4.948638176518308 6.250914616217449 36.08803720640374 -1 0 0
114 1 0.1836856415628973 6.33946317580552 5.9295488851137 36.11490031567921 -1 0 0
117 1 -0.1362635790996638 7.101991111163909 6.780232329927145 36.95609255442851 -1 0 0
127 1 0.3869113771902086 8.77410724374184 8.197453204041501 39.371941503446976 -1 0 0
115 2 0.2149096619535489 8.176996507945901 6.603326524629656 37.104558223756584 -1 0 0
120 1 -0.05361969777545368 4.340438751604713 7.351555962782264 36.80897618714992 -1 0 0
121 2 0.197241555176406 3.2430120454214073 7.511151088444983 36.72461922142091 -1 0 0
126 3 -0.4686669029487501 9.654075790114085 7.606488780330405 38.80800675039583 -1 0 0
113 3 -0.4572182970509233 9.453427508307385 5.524218219543674 35.37163795457057 -1 0 0
116 2 0.2238187386493314 4.287654644900153 5.593567151963746 35.46197447649848 -1 0 0
124 4 -0.4619750954779023 7.417067557235111 8.64577722544687 38.78288176114839 -1 0 0
119 1 0.1728657307343391 6.6090206651797185 7.873693842123869 37.78335519021114 -1 0 0
123 1 -0.09702789172686482 5.223868392490909 8.10766158077173 37.62005238346761 -1 0 0
232 2 0.1802409720411681 7.979450650160975 5.982248913826875 39.8973673075396 0 1 0
128 2 0.2120801460672967 4.689684066707697 8.925481133025755 38.149615782771974 -1 0 0
256 2 0.1420231789675751 6.365644449355606 5.546689572909892 44.028260341906176 0 1 0
241 2 0.1159531073941465 2.553395796031858 6.1203066402137924 44.119317431475864 1 1 0
134 2 0.1508767365825103 2.9783107642246 8.19049375751934 41.31968948176322 0 0 0
254 1 -0.1482398635240614 7.267367907159259 5.7129406124400415 44.60365525978986 0 1 0
208 1 -0.1686529631908325 9.644052864106818 5.937553513567349 44.611301431672345 0 1 0
237 1 0.2676265194252221 9.071288809838045 5.1296408215975475 41.55703911737406 0 1 0
231 3 -0.5121922216686178 8.285395887698144 5.766827205902965 42.456591650575774 0 1 0
230 1 0.2855323115729755 8.438789404576458 5.772966737160063 43.78470890213316 0 1 0
236 1 -0.1148337654528225 8.701268177314986 5.25794075661126 40.146595028514 0 1 0
133 1 -0.06516126074748188 2.023186864627789 8.674990712536648 41.641767197716874 0 0 0
130 1 -0.03343918025092742 8.91258907779626 8.747232136618164 40.78129407546088 -1 0 0
1 2 0.1434395960057376 8.67047264051114 8.673730429962049 45.66119599832332 -1 0 -1
26 1 -0.1335875647816382 8.115882893435165 9.542120623476205 5.3010574799066426 -1 0 0
10 1 -0.009718913897441218 2.7967813672585846 10.031477139460533 1.9674186606580997 0 0 0
18 2 0.1750920390731395 3.3653581983891447 11.673970560819466 4.034632065966259 0 0 0
16 2 0.1674471411286151 4.114514080674482 11.75199890264112 1.4954684005885501 0 0 0
22 2 0.156683616401598 8.945936181591163 10.72201254345428 3.6199918459018936 -1 0 0
14 1 -0.3005680613023756 4.0821284411538885 10.864692915000926 3.917116384273947 0 0 0
2 1 -0.1447013541787154 9.34383614001451 9.454778063937075 0.03634664298432483 -1 0 0
24 1 -0.1070531586825354 9.087576883889344 9.902333966554691 4.329288109928645 -1 0 0
12 1 -0.09438793800789887 3.316308058807688 11.091307960857911 1.1108427384725754 0 0 0
6 2 0.1632578796627032 4.983897258484591 11.10753477998141 3.2998869375525657 0 0 0
7 1 -0.1036455461450683 9.774886100765398 9.171428530131866 1.36102609249834 -1 0 0
17 1 0.01529945978607654 3.3872067120723734 9.604541460204658 3.295784520276532 0 0 0
19 2 0.112637812249267 4.5191201291891545 10.67784337740025 4.962716457338852 0 0 0
20 1 -0.004638770062791436 2.2925925881754914 9.1639612399722 4.293085823963445 0 0 0
28 2 0.1484935404046882 7.2088291323302025 10.10657085476561 5.338115430547654 -1 0 0
8 1 -0.1447142235127793 2.7124808186886247 11.404003906593783 -0.14852098618122678 0 0 0
139 1 -0.0006332771329245861 7.578451971676984 12.562471798387104 6.898605295425964 0 0 0
140 1 -0.1149796896535571 9.021040775002437 12.83271991022315 6.953939932234284 0 0 0
154 1 0.001271206318749697 6.779153980134727 11.85537026105213 7.973577050531857 0 0 0
165 2 0.1522236307358504 8.380675222181095 11.551528917515533 9.431811384626752 0 0 0
155 1 -0.1190899389759783 5.348209649905213 11.646583782505328 7.686446122990903 0 0 0
162 3 -0.4696477949379817 3.412602289895426 9.013870595999943 10.797827436193742 0 0 0
164 2 0.1275050102701772 3.4663019548510023 10.914979544048947 8.42962677703414 0 0 0
148 2 0.1223596897379437 9.601843826823398 12.740084783427266 7.899734009189515 0 0 0
163 2 0.0969400312734765 4.844080803730277 12.015262829272627 6.780551069371984 0 0 0
158 1 -0.08265210292474467 7.319553278582881 11.38305940109366 9.256203820226666 0 0 0
159 1 -0.01343064276422277 6.543470584255093 10.602992365013883 10.161783857512255 0 0 0
156 1 -0.07858695991582805 4.522158237005813 11.055271710032612 8.662039897104256 0 0 0
157 1 -0.03276987704904116 5.104595661174224 10.43757526615068 9.834326846746126 0 0 0
160 1 0.407504006088646 4.486370294931462 9.510422317249027 10.909497834752711 0 0 0
143 1 -0.09859818471185305 6.9279378112482615 12.994511210608156 5.6825698484295835 0 0 0
150 2 0.1253572610163717 5.830719883682117 12.977820754079048 5.583214340429317 0 0 0
55 4 -0.4194579870105871 5.938482281292684 10.299711367551865 16.214308577967927 -1 -1 0
52 1 0.1897674034706412 5.1925729655500135 10.930738498702944 15.073090178560632 -1 -1 0
50 1 -0.07165560725284485 3.0248567444647563 11.167704266325895 13.790702345005352 -1 -1 0
46 1 0.1900795208368077 5.084341585445879 12.162577769091712 12.833049032633802 -1 -1 0
47 1 -0.1071452864853687 3.7174880171832836 11.817654026733642 12.697717753326371 -1 -1 0
54 3 -0.4834197992308938 8.283473456275303 10.546735345580421 15.560242810923382 -1 -1 0
53 1 -0.1029397847735752 3.7858942523701513 10.743602529531508 14.94690909450104 -1 -1 0
48 2 0.2392403008441773 6.87708255360279 11.833794063279262 14.089202962569347 -1 -1 0
56 2 0.1951433689643262 3.346474604118354 10.163218077233505 15.773605093607175 -1 -1 0
49 1 -0.1270253817663693 5.76494906032986 11.740253661534783 14.038046670057453 -1 -1 0
57 1 0.3959019158180994 7.457680803769119 10.139447912841213 16.324098613123674 -1 -1 0
51 2 0.2089332535521571 1.9979553985660394 11.037990731793794 13.663134897332702 -1 -1 0
45 2 0.2011314009400447 3.2039185420966554 11.976844736275414 11.758017923507156 -1 -1 0
166 3 -0.4555996041949429 7.996994857042282 9.99331194951945 12.072162136000715 0 0 0
43 4 -0.4251818737003107 5.772316482560774 12.954452217428354 11.775586009072 -1 -1 0
167 1 0.41420366537239 6.976073498147489 9.860975411310331 11.480999452661427 0 0 0
161 4 -0.4233399337520711 5.671067711620724 9.032638218963708 11.758608242525865 0 0 0
258 2 0.1466965247973393 3.7676043683580227 13.173192683601856 21.24915778705642 1 -1 0
178 2 0.1626617072650958 8.158178080389256 10.96436493972673 20.061031253914237 0 -1 0
198 1 -0.1557486683003276 8.845685662767899 11.414433737830194 20.83494400058781 0 -1 0
58 3 -0.4807148983320663 4.167318055784804 9.65000579762667 17.902292723968227 -1 -1 0
183 2 0.1691123815239675 7.695099222276963 10.487153276146515 22.43912167059156 0 -1 0
147 1 0.2703116751483732 9.926025663177503 12.2816896611971 20.44265382818469 0 -1 0
59 1 0.3829628242371172 5.3226620722835145 9.599469753036804 17.524562417239135 -1 -1 0
61 1 -0.05700357291812107 6.487248165327855 9.002467065191317 18.30024003143203 -1 -1 0
60 1 -0.06618843365406622 7.767527078885691 9.38150499855721 17.624142665006875 -1 -1 0
196 1 -0.1058157421526837 8.568266205912096 11.195116848417392 22.195352682031576 0 -1 0
179 3 -0.5029422407992548 9.88991754578554 12.868417464920729 19.22469918146662 0 -1 0
197 2 0.16129857142316 7.358025681199243 13.104239455224622 20.445537172923522 0 -1 0
168 1 -0.142110267629751 2.7997395571496466 12.690157693348578 21.505468696286655 1 -1 0
62 2 0.1886254504196119 2.0106449755193316 9.178281016236303 17.681308358257404 0 -1 0
75 2 0.1423230626039155 5.133505661384474 9.295940027494813 24.6697872592826 0 -1 0
81 1 -0.2939760841876069 4.3214772036069515 9.642143385848472 25.35312515289095 0 -1 0
202 1 -0.09428818746385104 5.900569673190529 12.973064497483755 27.048202721950336 0 -1 0
206 1 0.3840080424770977 7.288146836658299 12.062433830690063 24.91816491421406 0 -1 0
210 2 0.1667916905116687 4.918279913366711 12.613292787862267 26.637744499921816 0 -1 0
96 2 0.1567450632746852 7.334682428304068 10.291154763078794 27.287836543033723 -1 -1 0
84 2 0.1786017335144542 3.8197088323376693 10.488803488344594 24.89359880048657 0 -1 0
212 3 -0.519623700902084 2.6623438567078175 12.909365803782181 25.884132047850297 1 -1 0
94 1 -0.126250079489443 8.301075361504564 9.801476294158093 27.618989214091666 -1 -1 0
207 4 -0.4368012071061154 8.805633678314315 11.901691333154208 24.685533002549665 0 -1 0
203 1 -0.05549001441251138 7.122883406668379 12.692371443501692 26.2841493813095 0 -1 0
86 2 0.1418745457690468 4.93761561942028 10.000906069335027 26.195459409212305 0 -1 0
73 2 0.1277967947013509 3.572960917146008 9.237279324490661 23.03323186789081 0 -1 0
92 1 -0.08635886424975718 9.183795184093288 9.384311905265402 26.587691952217288 -1 -1 0
90 2 0.1600071394700718 8.856944510505762 9.356311668351413 25.486492211687494 -1 -1 0
194 1 0.1701213128956322 9.355676949880205 11.795461815705183 23.28137240688091 0 -1 0
214 3 -0.5017264043768737 6.339020090497704 11.677196135552432 24.27784483327377 0 -1 0
213 1 0.4037661376976157 9.52011093445417 12.675880223247564 25.864872683026025 0 -1 0
195 2 0.1831054426062448 3.2829176335777466 12.685894579391782 23.599673271602 1 -1 0
93 1 -0.1195024133813629 3.003290363616841 9.157119433399547 28.300772435712798 0 -1 0
193 1 -0.1172381084850628 2.5408295057276478 12.29087605090334 22.845069697739913 1 -1 0
102 1 -0.16885076836026 9.373866808662028 11.78324006696637 31.2872906326169 -1 -1 0
98 1 0.2599847638371086 8.745826840730274 10.04805877118121 28.964934997641873 -1 -1 0
110 3 -0.4835243681538124 5.015314783855661 12.45595103327104 34.23624852164647 -1 -1 0
104 1 -0.1201795209496776 7.039268077405241 11.351409366885791 31.915108677425973 -1 -1 0
101 1 0.2740866735374913 8.111355735679222 11.15084534333254 30.96722579339995 -1 -1 0
95 1 -0.1627453224690818 2.088872987649171 9.664641431810779 29.255511505187076 0 -1 0
99 3 -0.5062608675653778 7.809626394117259 10.472231248378499 29.85196386741615 -1 -1 0
97 2 0.1486498298231264 2.427664465070503 9.753039730656226 30.289152275833626 0 -1 0
100 2 0.1328945145533466 2.1706311053076446 11.665552685560897 30.62707605638518 0 -1 0
103 2 0.1720220032567879 6.130019747901918 10.829865067507498 31.750964174456087 -1 -1 0
105 1 -0.069558536041639 9.572194716764995 12.486445975589092 32.49020984767772 -1 -1 0
107 1 -0.04101474132511704 7.153972608450465 12.108833070865835 33.146049775774756 -1 -1 0
108 1 -0.03627861793751513 8.524357776797011 12.727769827911981 33.44611193175197 -1 -1 0
109 1 0.4015711706021346 6.233367692388618 12.457440929505374 34.27246027985109 -1 -1 0
106 2 0.1658399276872701 2.5074229315464835 12.889553602243016 32.67485372135644 0 -1 0
248 2 0.2085490606418785 3.084513594210343 9.886520722955146 34.31995837423115 1 0 0
251 1 0.2529928158544931 2.4703592603903224 10.86829234321799 37.55539513898036 1 0 0
245 1 0.1715506922994864 9.137120234823607 9.844520699060887 35.16103830514486 0 0 0
243 1 -0.1284465454436154 9.067433337027271 10.72972041778408 37.476821916610334 0 0 0
215 2 0.1996585709608178 7.3043191416769 10.142824186891115 36.33830758143604 0 0 0
244 1 -0.08628322117966661 8.404671294963638 10.276607166125132 36.322340340176524 0 0 0
246 3 -0.4809883324487699 3.1527274681097133 11.316097129633363 38.628735200352565 1 0 0
250 2 0.1933809317908941 4.351262844081969 10.786764764851554 36.377847636104974 1 0 0
247 1 -0.09447644380749282 2.529274672150622 10.0466881714206 35.22979134813485 1 0 0
242 2 0.1731119256120271 8.55155890854833 10.993478061495145 38.42656298948374 0 0 0
234 1 0.2583903356367347 2.545369806248606 12.108024180628291 39.53507557708666 1 0 0
249 1 -0.1134713851498776 3.225778124815421 10.519129356658183 36.36343465609265 1 0 0
252 2 0.1763594161972043 9.240214040747695 13.086797767562938 38.09928575202417 0 0 0
235 1 -0.1368955212291036 9.499795128577798 12.97631696795489 39.19086600167094 0 0 0
125 1 0.3996847412070398 6.680736100714041 9.4202239443893 39.920663124065115 -1 0 0
122 3 -0.4768938946361188 5.652231918467761 9.974144115475493 39.897605247547986 -1 0 0
112 4 -0.4368783905907293 7.036332546433176 13.1663967191848 35.36608716135831 -1 -1 0
233 1 -0.1276156925729367 2.9694668079228816 12.032209146211084 40.91074649438579 1 0 0
253 2 0.1810660303326972 3.8986975600231233 11.45156746899275 41.096898121562276 1 0 0
3 1 0.2348477071533522 9.683837474122178 10.592174892582236 45.296728432345645 -1 0 -1
238 1 -0.1428187444383054 2.1983243147418334 12.714977719371365 41.89182773573084 1 0 0
131 2 0.1600792439939411 6.733630954716354 10.79723241839837 42.658042842370364 -1 0 0
169 2 0.1477588432757432 2.541367201680693 12.598253143129476 42.9524819476126 1 0 0
132 1 -0.1210644569643046 7.592294777758856 10.157780163663436 42.37840906449995 -1 0 0
9 2 0.1421931154360636 2.984497887688695 12.248426066197501 45.38636403343132 0 0 -1
137 3 -0.4943032023567302 8.90572959913142 10.994410368964381 44.25878721787417 -1 0 0
129 1 -0.04334187657495214 7.629388254375591 9.482799539713815 41.130238219722855 -1 0 0
135 1 0.2560904695189303 8.73649169783094 10.11639692224321 43.26141571374181 -1 0 0
138 2 0.1222465497669666 2.719553071233882 9.308255498393907 43.62049576082639 0 0 0
136 1 -0.1506204443828177 9.924624315020893 9.347046183223549 42.87974118590384 -1 0 0

Velocities

153 0.0028761654314395494 0.0044305597734227405 0.007656870314142699
23 -0.0019965512807858846 0.0021008417624798965 -0.002860857778702155
257 -0.002260866165529718 -0.0006871695620569235 -0.007285998505472616
239 -0.00859070623042957 -0.00015129473641765654 0.006696895076846241
4 0.01316728393897103 -0.01041142639662522 -0.02591519695226927
21 -0.017982917553522115 -0.005079685118631497 -0.03181738501776077
255 0.0016567600369333938 0.0017369793513043494 0.003934244048460461
11 -0.000648816213117379 0.00640529712416922 0.0006725519272116171
15 -0.018106655070759013 0.0023162579203459617 0.00011334732124012449
5 -0.03102170056901079 -0.00584064161281501 0.030410773539365315
151 -0.0037781492433128635 -0.003413173545203591 -0.00733288988535147
152 -0.0010764456737978178 0.0007969864671446366 0.00858504579084383
145 -0.00042796954755886055 -0.0013923403601302808 0.0003295351236556336
146 -0.0012992944847646515 0.00017041739987793647 -0.008511436842845388
13 -0.004905085062550971 -0.02895296813508373 0.00018640679548765718
142 0.0024395007232873144 -0.0006828762215016543 0.006192653598287601
240 0.023848044452090836 0.010286715932822125 -0.030667275041067792
144 -0.0018033695864099945 0.001961321490587622 -0.00017095829444629257
177 0.003629772977949402 0.0009496135242687531 -0.00504867371198935
35 -0.003970828744225207 0.0036423559040551848 0.004975720266406838
31 0.0054335800724564275 -0.0039188895929923966 0.014688242229582003
36 -0.004303723514026296 -0.0009528095557275584 0.0015305877650233243
38 0.004535510843359616 0.008888747051766966 -0.0033476439137098027
30 0.0018247112895951872 -0.0030412152792865313 0.00763222275088212
37 0.0034894216640509275 -0.009901949178614942 0.014878590236878205
34 -0.011057398191741988 0.0055181810817595085 0.005098766609180743
27 0.019770570974961498 -0.0021802216613608523 0.007304854001713906
32 -0.0033163745705933785 0.003659404000599252 -0.005024729361572884
33 0.005864701843546633 -0.002568584701099603 0.0009883471287003257
39 0.0029515462691794875 0.005107182498829975 0.0031648180643343037
25 0.0033074704240960966 -0.002311255145688377 0.002046556555522646
40 0.0005345532785950438 -0.00011816075434881899 -0.004373629485541709
29 -0.00677333767414348 0.0018818780122564244 0.0013876921633932616
41 -0.003704555141776378 -0.004491137265741933 0.006186596375593163
149 0.014424957260913808 0.0024051408535618424 -0.01343051426452332
141 0.0020224141627560696 -0.005925244706689037 -0.00041584079921599905
184 0.004285253826880981 0.01174851815943426 -0.00012301860726804053
188 0.01471691008409254 0.0037724287225970243 0.005028806267363769
186 0.0035099946851268613 0.0026742863854268824 -0.005120600915057507
181 0.004053175764193105 0.005610566469375272 0.007390028434788261
191 -0.014777934718486247 0.008831772362846161 -0.024255146435784185
199 -0.0038489694538737206 -0.015397219929597887 0.00028655409840733275
182 0.010404476624619317 -0.0018144603927638275 0.000953771296352417
189 -0.014808357750639335 -0.015143012051140804 0.009185865748442434
170 -0.0012468160028730418 -0.004595853741604932 0.013160870583000629
190 0.0025349034780125434 -0.0037540445174349853 -0.004164364323508402
185 0.001017042068228622 -0.002194267551927415 -0.0013465264735896794
180 -0.01177300009587295 -0.027567153937687734 -0.011017509129064448
42 0.002184505437624815 -0.006792550501086261 -0.003760360685600566
173 -0.0025440730746680166 0.00255870913213106 0.006086438068625725
187 -0.018990498069107555 -0.004794254311009962 0.020734783259487303
44 0.0011926004147372565 0.00723093983361462 0.004208433716594048
72 0.002809127381230685 -0.0026079032624279747 -0.0025826637595393583
66 -0.004230958806173072 -0.003814556203971663 0.0022329773679668
171 -0.004854321018787675 0.0035989599274335276 -0.0035903104441282704
192 -0.04612769483674788 0.004021797297097674 -0.005631727176202217
71 0.004092480480348915 -0.001059678628938492 -0.004710312281575264
68 0.0029029971249050534 -0.007995139709608207 -0.0071840788129499435
176 -0.0033319239894583227 -0.003241256363173482 -0.006284381487540988
65 -0.0015704838899177084 -0.011024053146924943 0.0017608686866548312
70 -0.004216541767231929 0.006186146565056815 0.0031955303832547567
67 0.002531707440893442 0.0005533956474044534 -0.0007198816651394584
172 0.0013853136149013711 0.0019484584670202173 -0.0014304967844695681
174 -0.0035147891491011446 0.0018491390016981523 0.00010764242415957753
64 3.7944513900441266e-05 -0.002661355502467736 0.002143768232164644
63 0.004485614140095065 0.002896134713204744 -0.004893378908613466
69 0.008473122735398818 0.0068242248953310535 0.024123167406577113
175 0.0025066832530810847 -0.00709804696120427 0.0007866406269797656
204 0.0022350166588336008 -0.0029004690959401136 0.0026541591275258316
74 0.010511707898838311 -0.014849909323488326 0.0012651531350721386
82 -0.002856181275859339 -0.010216983570639911 -0.02563886761316998
77 0.0024892409538907942 0.006244957095824476 0.0006618739691685415
85 -0.002154377862723118 -0.022094620810155646 -0.0057770347611528616
83 -0.003612438406979734 0.004221179090742158 -0.0011806694326181608
88 0.008284196806718462 0.023507043921715896 0.023573342643520647
79 0.0016398486765951572 -0.008532530739203847 -0.004461673609529629
78 -0.00540839004310252 0.014217561124956495 -0.001191446337292067
80 -0.005803220410219661 -0.00589710653327469 -0.0060352428586613145
87 0.0026243540412331443 -0.0011343116043327547 -0.00954171438629222
201 -0.006552156931145542 -0.004764001509028185 -0.00573898067013382
76 -0.00034928185541220386 0.0010910302486583962 0.0067193440244228166
211 -0.006731826755380839 -0.012997654829998507 0.015471569852274403
89 0.001163737797366721 -0.0015366535919954848 -0.0021538379810659186
205 -0.004572043136858774 0.0016770024685298826 -0.003818125362558114
91 -0.025193240183182888 0.010217647179876908 -0.02479009412124837
216 -0.0003317077678239732 0.0029177224969021837 -0.0024036015404555276
218 -0.0023080004583803325 -0.0024506009907163226 0.004731720842052503
200 -0.0012459630049392162 0.005643847357137707 -0.007713914773639991
226 0.011541796123074152 -0.009225806400323396 -0.01879369023036695
229 -0.005264632045573392 -0.0029828564125739475 -0.004533480382418736
228 0.0042050251697284624 -0.0021077115788726776 -0.0003742745483080426
220 -0.0008919023820411287 0.006153258593773371 0.004338202409311954
227 0.00806603394726502 -0.003261161946075977 -0.01741805028937788
219 -0.0005154733943217736 -0.002739271140811428 -0.003865242841587478
209 -0.023855197336428952 -4.763429038584146e-05 -0.012211054462914159
225 0.009762204605477382 0.0013627623108009158 0.017870297084958287
217 0.004533379152187631 0.001468102842042862 5.015170546442583e-05
221 0.0005305837118596596 0.007292597305196955 -0.009280108674248253
222 0.0033567976419773007 0.0005936978619307467 -0.0020482226853653046
223 0.007159759182932784 0.00336550684257382 0.001331896829085645
111 -0.00048149991884553815 0.0019920089359457336 -0.0033988651958391934
224 0.002435787012670215 -0.008014931898218326 -0.001877213391964324
118 -0.0003551999125779784 0.004387081937520896 -0.0020132448638967245
114 -0.010231705196197457 0.0016982511518746676 0.0001697184071245307
117 0.0010121670302063281 -0.0029767386918682507 0.001971154367336464