LAMMPS data file via write_data, version 29 Aug 2024, timestep = 16, units = real

258 atoms
4 atom types

1.9855364180644246 10.014463581934866 xlo xhi
4.816477036988092 13.18352296301206 ylo yhi
-0.19360915935843437 45.87807615935894 zlo zhi
0 0 0 xy xz yz

Masses

1 12.0107
2 1.00794
3 15.999
4 14.0067

Atoms # charge

153 3 -0.4905405676568114 2.8266513430912186 5.459393736933876 2.914064151222368 1 1 0
23 1 -0.102592978405761 2.5701356793351224 8.0974730005864 5.252731920386465 0 0 0
257 1 0.1792922292443924 8.413368528979214 5.940596536084921 0.7800521137389189 0 1 1
239 2 0.1719305816780071 6.299764659384542 5.499955443694098 0.4025071571689337 0 1 1
4 2 0.1859517896378005 3.876681976769963 7.522341276484165 3.0169160963648656 0 0 0
21 2 0.1286087473152448 3.511206662487967 7.524769427550493 5.288418081824844 0 0 0
255 1 -0.1129663849193691 7.248941125351376 5.700573653373537 -0.03949451344963431 0 1 1
11 1 -0.3091238767832356 4.426063006691602 8.476702105597523 3.1438714962113243 0 0 0
15 2 0.1389306151446288 5.183964254372676 8.397038220246422 3.97744492572492 0 0 0
5 2 0.1564108417702887 9.453470113157646 8.27510586468356 1.8354036805229668 -1 0 0
151 3 -0.4911787722426506 6.0691684217705975 4.954401029544945 2.627620588291046 0 1 0
152 1 0.4013665902775885 7.14347897247355 5.230303449792758 3.041956749340876 0 1 0
145 1 0.3908879790237203 9.703077458640148 5.565779610009129 3.199328926996527 0 1 0
146 4 -0.420315320704752 8.439329359356574 5.708758494691504 2.264371469843546 0 1 0
13 2 0.1361042092971613 5.113868098906448 8.690844302434243 2.335242422252834 0 0 0
142 1 -0.04584438751235807 9.113996844586717 5.1850808670959045 4.5603008678169 0 1 0
240 2 0.1522876209758279 2.5178511172968103 6.267608671922944 0.390678220565824 1 1 1
144 1 -0.04466583485424106 7.647209198436095 4.970430565827573 4.494609268649797 0 1 0
177 1 -0.1194790618212018 9.575588168346295 6.1348852386657615 -0.06279265191552219 0 1 1
35 1 -0.11390806925909 6.212903438914524 7.02862942523955 8.768630214896094 -1 0 0
31 2 0.1597933443314728 9.400230632508956 8.289432517450088 8.664374652867156 -1 0 0
36 1 -0.05001265532275326 8.67354323671996 6.890454638417023 10.251147704579726 -1 0 0
38 1 -0.03625036496011182 6.269090109155172 6.210279002178859 9.934466183141819 -1 0 0
30 3 -0.5142597935303943 7.290431378657182 8.183210308943652 7.005426813779878 -1 0 0
37 2 0.1934755010637862 9.575792391179252 6.944679215708101 10.859703471934704 -1 0 0
34 2 0.1674615064372691 5.229732772596298 7.176325160904103 8.30761419494705 -1 0 0
27 2 0.140993942239266 9.869317224196543 7.025479618739143 6.971847123052482 -1 0 0
32 1 0.267515658881109 7.3953956292296334 7.668006043238992 8.235498749679657 -1 0 0
33 1 -0.1455901914190392 8.594972491322629 7.653892619584331 9.047985549616929 -1 0 0
39 1 -0.04670940221519496 7.540224200645665 6.076994689095848 10.67343689628612 -1 0 0
25 1 -0.1651488351361054 9.654636955367675 7.809216283226833 6.248879281681742 -1 0 0
40 1 0.4120817740660321 5.102352818995525 5.422193479426698 10.623344783261738 -1 0 0
29 1 0.2540392448751929 8.373502941097819 8.497404884771287 6.267075859164424 -1 0 0
41 3 -0.4851656713404173 3.9529383060277947 5.416783663687619 10.353326407185902 -1 0 0
149 2 0.1137645726972132 2.7696971715024725 5.098321090080044 5.9807845927110455 1 1 0
141 1 -0.1034253873391186 9.736804060081717 4.943719967672132 5.836462491783626 0 1 0
184 1 0.1829796045169478 5.531126838868321 8.256288819944428 13.055640015072504 0 0 0
188 1 -0.1592551003730964 6.426669301998174 7.453682989636775 15.26334918560561 0 0 0
186 1 -0.09745960213083671 6.579573963501222 8.157742258942756 14.011518880262493 0 0 0
181 1 -0.1369172548822034 4.1679206512052716 6.815327182283747 14.678188382897346 0 0 0
191 2 0.1706345015624049 7.674099472782294 5.5133562614844 15.426176546267047 0 0 0
199 2 0.1871580645886022 3.477950754119461 7.740790684488852 12.8910333597308 0 0 0
182 1 -0.111377539660864 4.3372374057552925 7.631716239460743 13.513809821619704 0 0 0
189 2 0.1487628394966625 7.277958528971549 7.467794196907953 15.929743346656483 0 0 0
170 2 0.173774384080197 9.814337105436389 5.024511842928772 16.677585489958602 0 0 0
190 1 0.2525615711933585 5.278193476929001 6.618486959515107 15.564300365719669 0 0 0
185 3 -0.4855365335904668 5.226352781616998 5.752381136641426 16.61079761502632 0 0 0
180 2 0.1530443552470018 3.209862449452018 6.35161224812029 14.987062411653422 0 0 0
42 1 0.4056655184974842 7.267376806008766 5.1079267241915725 11.847261364196545 -1 0 0
173 1 -0.1550720830976498 7.659594632487471 5.342309594641058 16.491303055102424 0 0 0
187 2 0.2034415316945783 7.537069025018696 8.694630065071994 13.909489959357401 0 0 0
44 3 -0.4699915998638451 8.05864985130976 4.874837354214399 12.707550676981338 -1 0 0
72 1 0.2593872583014434 8.750958642720029 7.492131782404345 22.29075602398783 -1 -1 0
66 1 -0.1672079003052343 9.025595090555045 8.141572524811952 19.346537940509773 -1 -1 0
171 1 -0.1154350939212442 6.3174658669231665 5.077941212245558 18.59718094284807 0 0 0
192 2 0.1716642429120411 5.3408884966521635 5.061508856598836 19.059623696434862 0 0 0
71 1 -0.1536544247162555 9.868249127792723 8.395390585632331 22.10758787256099 -1 -1 0
68 2 0.155502774612007 9.95904501663795 7.656323153569729 19.63342071001384 -1 -1 0
176 1 -0.1460385298953946 7.501459377335535 4.862972278559426 19.33045736359361 0 0 0
65 2 0.1630371619306586 5.628648795870759 8.127281289724307 20.053042911971016 -1 -1 0
70 3 -0.5216680876971661 7.72529142157977 7.4948651465022085 21.421340381632543 -1 -1 0
67 1 0.2415576355353232 7.816808125589125 7.906129441536317 20.11245884157501 -1 -1 0
172 1 0.2589985138554284 6.4068498875020365 5.377490015391476 17.177428714426746 0 0 0
174 1 -0.1171360040775379 8.859730899902585 5.130447896020141 17.192691750139755 0 0 0
64 1 -0.1309582170604486 6.570970286874553 8.321946648069046 19.56132013336141 -1 -1 0
63 1 -0.0745926902543714 9.039220847326904 8.950798962994078 18.17590264006884 -1 -1 0
69 2 0.1487067995583172 2.0268662261610215 8.898137055449801 21.14229549484235 0 -1 0
175 1 0.2639712115816796 8.767559916089727 4.874659949295098 18.627420303607526 0 0 0
204 1 -0.1042308084561351 8.517188058948658 5.548432212544286 28.04947659508941 0 0 0
74 2 0.1430941275176461 4.798293632004758 6.831977098116352 25.25098760496123 0 -1 0
82 2 0.120218777249968 4.9822644892322385 7.636469040829493 26.819109048127324 0 -1 0
77 1 -0.1358336210422566 8.555126602604453 6.8741541591678335 23.597881512225726 -1 -1 0
85 2 0.1614992327962469 3.6158385777926005 6.563325192838707 26.636268110151786 0 -1 0
83 1 -0.09994978696322041 9.357159449708167 7.1934549181848535 24.704019604918543 -1 -1 0
88 2 0.1505399867295783 9.099143947162172 6.73847102772575 25.664929081217082 -1 -1 0
79 1 -0.3028102391025989 4.220495029684266 7.307872660338777 26.099688569910484 0 -1 0
78 2 0.1579263273210657 7.703311050280859 6.24131531696699 23.815390838605442 -1 -1 0
80 1 -0.007021486854481424 2.4598787912876197 8.094375743421498 24.532164122046613 0 -1 0
87 1 0.01326576712931513 3.3118984212077542 8.51814596021231 25.693155738098902 0 -1 0
201 1 -0.1218544133664159 5.9935878220270755 5.3211491682204874 28.241774574614638 0 0 0
76 1 -0.1023470050758582 2.6981474467542954 8.627937122223704 23.19618199891891 0 -1 0
211 2 0.122262128365268 9.489149737867606 5.888057284208619 28.386353563458485 0 0 0
89 1 -0.005331122916986952 2.50342095281287 8.968600599085384 26.92911454362313 0 -1 0
205 1 -0.06674053180242989 8.442234194764502 4.85744643353541 26.796590485571958 0 0 0
91 2 0.1130966550234807 4.0438591753470385 8.973758221385795 28.588736623696683 0 -1 0
216 1 0.007215276941379495 7.275796894378848 6.399292200121756 30.140905457606834 0 0 0
218 1 -0.07342266350390075 5.766774913118622 7.203556840864986 32.048920751894016 0 0 0
200 1 0.005055047383517048 7.302337837189895 5.749296106377879 28.809238346821246 0 0 0
226 2 0.1858521954037528 4.776599501734734 7.299661757775388 32.502753131460324 0 0 0
229 1 0.4086837910982258 9.293626011353412 8.264638873038654 32.92856037167482 0 0 0
228 3 -0.4914800473037549 2.437529100449439 8.14247524430166 32.74645083192914 1 0 0
220 1 -0.08504222258200267 8.462315278557044 6.799067480725705 30.824561382634528 0 0 0
227 2 0.1288220298784883 9.444024920406195 6.586690798573609 30.348151578287062 0 0 0
219 1 -0.03735300714403887 6.9326983155766735 7.775839430276781 32.69079419836966 0 0 0
209 2 0.1020935353992686 5.05937033710247 5.579972799811284 28.721120765937997 0 0 0
225 2 0.1124894990425068 5.090874243546601 6.200501632457229 30.337108193759672 0 0 0
217 1 -0.1156432547470393 5.953209581145122 6.611069002099599 30.758483813442027 0 0 0
221 1 -0.02638539530949641 8.294904747569277 7.530303481910291 32.05950040073206 0 0 0
222 1 0.4040689951755016 7.00183308548776 8.659597368145771 33.92843779173158 0 0 0
111 1 0.3976957019549021 8.523462351007561 4.971928295731581 34.82989652744919 -1 0 0
224 3 -0.4562849178456054 6.102912061521863 8.906908775800403 34.66968947618628 0 0 0
118 1 -0.09168013639015865 4.947797846029089 6.250032824567317 36.087635135024215 -1 0 0
114 1 0.1870780325160702 6.343334313620265 5.926593558408173 36.1160571362921 -1 0 0
117 1 -0.138527357799838 7.100561221256737 6.788286707284016 36.966519583874 -1 0 0
127 1 0.3866312425577718 8.793173202623834 8.190982639350691 39.369446184031204 -1 0 0
115 2 0.2153600283374801 8.17515776402195 6.602026121597169 37.099892727238085 -1 0 0
120 1 -0.05234021727736865 4.347855304005446 7.32668335220008 36.794662837123994 -1 0 0
121 2 0.1966673952954252 3.249895827502358 7.514879336263171 36.72677180656383 -1 0 0
126 3 -0.4723459335728384 9.65651352623139 7.604411817564934 38.80562854772231 -1 0 0
113 3 -0.4642431743440659 9.439330131414797 5.5144685650827165 35.36216589108672 -1 0 0
116 2 0.2231333754966922 4.290798898909993 5.602252767349743 35.46837271632771 -1 0 0
124 4 -0.4461704628190562 7.412141565755467 8.647020742786053 38.76787095212063 -1 0 0
119 1 0.1701350446472504 6.607048884264421 7.857797623665038 37.76585092846784 -1 0 0
123 1 -0.09811623667322346 5.203667455897128 8.115450098101908 37.6202887665531 -1 0 0
232 2 0.179155208188185 7.9655978910315435 5.983029583526374 39.89120799116506 0 1 0
128 2 0.2132337475500795 4.695570463114865 8.923152925245398 38.149949614391986 -1 0 0
256 2 0.1422843034207415 6.357396964657758 5.546376377693069 44.02998331017616 0 1 0
241 2 0.1158441186797688 2.559080835797174 6.11694977582588 44.11703975213757 1 1 0
134 2 0.1515853085058362 2.9717706854979826 8.189997898507421 41.32394390786327 0 0 0
254 1 -0.1441229338361046 7.254369628984844 5.707854037681228 44.59262000585606 0 1 0
208 1 -0.1685558274245715 9.63760878360587 5.950106532449773 44.60051579372036 0 1 0
237 1 0.2749882606903463 9.067873783242026 5.134807371618607 41.561937466131326 0 1 0
231 3 -0.5107920047624616 8.289704706405987 5.763238291946394 42.43925289698379 0 1 0
230 1 0.2771884822937715 8.458329292392337 5.772547448079223 43.7913894356394 0 1 0
236 1 -0.113588128125416 8.717258026296518 5.2606805547982995 40.1686534279968 0 1 0
133 1 -0.06714681935047948 2.0363356738439373 8.679740411670208 41.649718223055714 0 0 0
130 1 -0.03497825691687766 8.912156833778768 8.743740418382226 40.77585367622187 -1 0 0
1 2 0.1455659427106072 8.671242537737323 8.681138522877886 45.66418506790704 -1 0 -1
26 1 -0.1342147785942284 8.122555848379292 9.547653609928888 5.294511623857299 -1 0 0
10 1 -0.01007759160873989 2.7876650109939884 10.019627944271921 1.9516059110302102 0 0 0
18 2 0.1736648634420862 3.3648854347461867 11.680606903413606 4.033262358183222 0 0 0
16 2 0.1668172974958321 4.111889670679943 11.74952740365602 1.4923351690409552 0 0 0
22 2 0.156029659780224 8.941333996648824 10.72256712402385 3.621018027755906 -1 0 0
14 1 -0.3026065129036783 4.097983077502679 10.86065381366582 3.9272871771742537 0 0 0
2 1 -0.1457810339425661 9.333476033260672 9.434414880152012 0.0347889176514527 -1 0 0
24 1 -0.1052434702346516 9.089302422973974 9.899247582477784 4.331272486255071 -1 0 0
12 1 -0.0951021629542488 3.309854753345871 11.099873661515137 1.1087409765452372 0 0 0
6 2 0.1639451970253958 4.980952531688669 11.112723111400358 3.301961690453242 0 0 0
7 1 -0.1000164195798557 9.793074954499886 9.187117008594312 1.3545775974603156 -1 0 0
17 1 0.01211141431007448 3.370011768682968 9.61269238730634 3.3108924332473504 0 0 0
19 2 0.1147167336521549 4.5138336319974 10.6760431926659 4.954756572566914 0 0 0
20 1 -0.0055974090865515 2.3087608145541725 9.159434746403024 4.290307830027258 0 0 0
28 2 0.147690870820762 7.201532219995464 10.108515375710931 5.338665144328839 -1 0 0
8 1 -0.1422781786193427 2.7002544473444257 11.387862179910119 -0.1433683129921096 0 0 0
139 1 -0.0001869764526822616 7.584185978204579 12.559473691267593 6.908210924661248 0 0 0
140 1 -0.1152987173829664 9.01668014936268 12.836590564410088 6.9569853286783605 0 0 0
154 1 0.002555683205597216 6.7708359133144675 11.859582308397428 7.973201780510568 0 0 0
165 2 0.1522579673568774 8.381311288959422 11.550962132522162 9.435119310848107 0 0 0
155 1 -0.1177128207823607 5.356667033878383 11.654889676948867 7.694174059041874 0 0 0
162 3 -0.4672372857001647 3.406604418869072 9.014894534632234 10.800226189516916 0 0 0
164 2 0.1275260373177116 3.464105111317495 10.915877723500914 8.431633920185515 0 0 0
148 2 0.1225698542306201 9.595843585086117 12.734472175969618 7.894392692155764 0 0 0
163 2 0.09684361978642693 4.850011600666001 12.014115647928591 6.782967168037869 0 0 0
158 1 -0.08277809668187372 7.323919426739053 11.385944703494879 9.23844605900562 0 0 0
159 1 -0.01648071526514753 6.552894578344243 10.608755756465174 10.16091617278051 0 0 0
156 1 -0.07999039270048028 4.520737017936594 11.047772256016696 8.651888909740473 0 0 0
157 1 -0.03418345197533017 5.10040437563717 10.439168755187238 9.839156576914851 0 0 0
160 1 0.3969085612663285 4.485173161401483 9.509275426099423 10.893688388359621 0 0 0
143 1 -0.1013124667678807 6.913718743373709 12.98898012234627 5.684624607283986 0 0 0
150 2 0.1261142934927528 5.8330938562458075 12.973936086347022 5.58455688569696 0 0 0
55 4 -0.4280980596286139 5.940198580999996 10.293822563712162 16.224167658939407 -1 -1 0
52 1 0.1914128939329055 5.195466630044802 10.933799909627346 15.078537302833707 -1 -1 0
50 1 -0.06776865394806922 3.047483970446451 11.173806301788373 13.792933859655804 -1 -1 0
46 1 0.1842463604503274 5.091346687812049 12.156285627128936 12.847801315405743 -1 -1 0
47 1 -0.1045186892999664 3.7123398100340546 11.808054117391816 12.708912474080325 -1 -1 0
54 3 -0.4813746489517993 8.281766719248214 10.543914292246527 15.564681602601436 -1 -1 0
53 1 -0.1038521227433626 3.7846818953226005 10.744279294127502 14.941156635386866 -1 -1 0
48 2 0.2391251624968953 6.868294391174805 11.837935913827902 14.089228362550452 -1 -1 0
56 2 0.1945893377700668 3.339521056510182 10.166859883960528 15.767958539761647 -1 -1 0
49 1 -0.1276124183665557 5.764552231270387 11.726266291332553 14.035948224957416 -1 -1 0
57 1 0.3959205399584821 7.454414322541879 10.13674800336332 16.338018128434825 -1 -1 0
51 2 0.207149246021457 10.013264988349544 11.029463412628873 13.667352770058136 -2 -1 0
45 2 0.2003186731989216 3.1995808805320296 11.98236535104141 11.757924659668118 -1 -1 0
166 3 -0.4523924082369125 7.9960041162588995 9.991331521340944 12.07063522729101 0 0 0
43 4 -0.4140592466810801 5.7825990641373295 12.960313124763173 11.770715922826348 -1 -1 0
167 1 0.4065708988069567 6.9797346414698955 9.873262265026906 11.465376706461054 0 0 0
161 4 -0.4099477192161035 5.673668689813077 9.013853655131136 11.789418446222754 0 0 0
258 2 0.148249991195339 3.760647203651883 13.174753769514052 21.250372483441726 1 -1 0
178 2 0.1633139165612161 8.165084667226392 10.966170185169757 20.066043181726204 0 -1 0
198 1 -0.1568529643225748 8.830906997382257 11.405680416213691 20.83204162270043 0 -1 0
58 3 -0.4975648362423715 4.1962505309343126 9.646651696961474 17.894776882743642 -1 -1 0
183 2 0.1705922732312042 7.705782329970434 10.500227073550603 22.437967946031712 0 -1 0
147 1 0.2633596449026523 9.928770101989004 12.2868201898686 20.454739781720388 0 -1 0
59 1 0.4103681779693924 5.305531993303125 9.610107886397996 17.516634507478287 -1 -1 0
61 1 -0.05779753150399926 6.496511374596476 9.010259214362998 18.298284885486797 -1 -1 0
60 1 -0.06634687740005291 7.77820182610827 9.381496953057738 17.6190894512112 -1 -1 0
196 1 -0.1102579220143363 8.567390852902179 11.192095822699187 22.21234433732331 0 -1 0
179 3 -0.4922595111807872 9.914027800577628 12.87274921482153 19.222254082939237 0 -1 0
197 2 0.1630061761187429 7.368121187876323 13.102941352038513 20.433767527902965 0 -1 0
168 1 -0.1417831525300174 2.8078123957492545 12.679070252844083 21.491604770011413 1 -1 0
62 2 0.188118123012134 1.9953124465854888 9.17443962237604 17.684148044145953 0 -1 0
75 2 0.1439238302999343 5.131093994396327 9.294401415912827 24.666502492394955 0 -1 0
81 1 -0.2944825497372353 4.337327712614816 9.649915039015582 25.343956602866832 0 -1 0
202 1 -0.09513328544300517 5.893360218941414 12.955642649435523 27.023226753854452 0 -1 0
206 1 0.3919691344933935 7.281421431036408 12.050865950044649 24.91566455160503 0 -1 0
210 2 0.1682845641391418 4.923823691977795 12.618289251113683 26.642137267499297 0 -1 0
96 2 0.1580704504002869 7.338895708476845 10.278613027842692 27.292446876918213 -1 -1 0
84 2 0.1787003014266583 3.8172354985892105 10.496152150649047 24.891513515321517 0 -1 0
212 3 -0.5255026922939309 2.656185506114825 12.908205082377249 25.890018116847553 1 -1 0
94 1 -0.128261150449943 8.293614697708882 9.824385360137923 27.60272096641439 -1 -1 0
207 4 -0.4432768737929555 8.807964277014374 11.903733187858974 24.68068310316865 0 -1 0
203 1 -0.0549911315980306 7.110572627741926 12.697302740053999 26.28396224199769 0 -1 0
86 2 0.1423895279471895 4.93395195222351 10.001319520326515 26.202096255652815 0 -1 0
73 2 0.12717147506381 3.5747467634203116 9.24329665659106 23.031984705252164 0 -1 0
92 1 -0.08895413536168964 9.17899264285117 9.378782466755329 26.579118651877966 -1 -1 0
90 2 0.161013054425878 8.858456957393791 9.35742080443776 25.503238922246386 -1 -1 0
194 1 0.1721619118720187 9.331898537106659 11.77062230226814 23.278644039801726 0 -1 0
214 3 -0.5066395712258923 6.3470615723593795 11.67939912699193 24.27551933207098 0 -1 0
213 1 0.4141235998555434 9.527466271457088 12.676618298174327 25.84926815152909 0 -1 0
195 2 0.1838835604422723 3.27845152623642 12.679929000461552 23.59461913435228 1 -1 0
93 1 -0.1185123784609649 2.994908396685119 9.160776974031691 28.298918776932844 0 -1 0
193 1 -0.1180617928618982 2.556360810220771 12.316343619805567 22.84913594442109 1 -1 0
102 1 -0.1670365055485745 9.374307361811862 11.780277213181563 31.287024237690424 -1 -1 0
98 1 0.2636980964645763 8.745250690631 10.04356599829001 28.97124066886796 -1 -1 0
110 3 -0.4957834314883663 5.0328287290103075 12.44937384552602 34.23102195349925 -1 -1 0
104 1 -0.1209248865986964 7.043978898795909 11.352782614097485 31.925143727018817 -1 -1 0
101 1 0.2744193900407294 8.099071754439583 11.14946546760282 30.97088799990312 -1 -1 0
95 1 -0.164357689866435 2.089438645141871 9.662078503445548 29.261507093650323 0 -1 0
99 3 -0.5084470937965047 7.815164654895676 10.471202627280313 29.848448972056573 -1 -1 0
97 2 0.1492986805146124 2.4297810984280805 9.753685695780455 30.288989005593745 0 -1 0
100 2 0.1325777449093716 2.17731591910278 11.667008493878125 30.62096461775721 0 -1 0
103 2 0.1714292059808201 6.120214404895141 10.827976915348803 31.74747216668438 -1 -1 0
105 1 -0.06770638670037006 9.56451976537666 12.495099353968596 32.49923097588703 -1 -1 0
107 1 -0.03692995858956033 7.177722455982918 12.109756461997307 33.130009338275 -1 -1 0
108 1 -0.04046706703019245 8.513961033036612 12.71887892955011 33.455571762877724 -1 -1 0
109 1 0.4180106326326798 6.215823629658681 12.465325344079144 34.281081999507094 -1 -1 0
106 2 0.1653160032099705 2.5169313559995397 12.89366570008645 32.67933069854354 0 -1 0
248 2 0.2088934669135895 3.0906659194516526 9.883394894953902 34.31719306605575 1 0 0
223 4 -0.4134492076379609 8.524893146964752 9.001319104002878 34.102692749834645 0 0 0
251 1 0.2569098562040371 2.487967869471856 10.870925507257585 37.547947776417715 1 0 0
245 1 0.1720626897116671 9.138659829280055 9.840616896423706 35.16334966643542 0 0 0
243 1 -0.1299011826969818 9.066141091144937 10.737735309260765 37.502454510101344 0 0 0
215 2 0.2005793050105658 7.306424018563366 10.145682290146256 36.33855894690532 0 0 0
244 1 -0.08866331784658713 8.390447324551083 10.269010486429405 36.31463298049816 0 0 0
246 3 -0.4820485171190113 3.1563994731392286 11.313317705634914 38.627027323417124 1 0 0
250 2 0.1949688912861238 4.335622523003147 10.776898706744943 36.372686511754495 1 0 0
247 1 -0.0946185897502366 2.5347094219866735 10.053522846685494 35.229372069534904 1 0 0
242 2 0.1747848033355216 8.545461182291982 10.9913883689421 38.42046324679545 0 0 0
234 1 0.2593539318433836 2.553050478391766 12.10042143090827 39.53638472816452 1 0 0
249 1 -0.1183683582467008 3.235328686146014 10.531543715001346 36.37259013005723 1 0 0
252 2 0.1781123710755 9.242349262496168 13.089504284842535 38.10674862741713 0 0 0
235 1 -0.1388882976870245 9.48379218404681 12.978186911139066 39.16852606733006 0 0 0
125 1 0.3737885522145143 6.691874425411405 9.423141486339983 39.93604795410782 -1 0 0
122 3 -0.4600285393336679 5.627756112569647 9.985599859185811 39.897436639614355 -1 0 0
112 4 -0.4435982071225772 7.030382773154109 13.179219305957044 35.368103014577784 -1 -1 0
233 1 -0.1280197885970936 2.9700626401188837 12.035218516104038 40.909228465568646 1 0 0
253 2 0.1809454472984234 3.8915570910637443 11.453842235365226 41.105024369399445 1 0 0
3 1 0.230759435353103 9.694670523221648 10.601507297416546 45.30685860148448 -1 0 -1
238 1 -0.1455707230289484 2.2088024122493017 12.706463111802835 41.897557390066666 1 0 0
131 2 0.1607366898327599 6.734818991290408 10.79306148119569 42.65665501817179 -1 0 0
169 2 0.1483867287813584 2.536875454531692 12.601114773403452 42.94516076304477 1 0 0
132 1 -0.1217863544620436 7.592883583882249 10.166930380164947 42.387384022170295 -1 0 0
9 2 0.1396068513048891 2.993551760353401 12.26065794326404 45.38053767968478 0 0 -1
137 3 -0.4906138701417891 8.902411855818917 10.994370463842735 44.25695709956621 -1 0 0
129 1 -0.04169305790965065 7.631430724180484 9.486852490321283 41.13824817677255 -1 0 0
135 1 0.256807759800191 8.745621616925652 10.112770704453537 43.25689175270672 -1 0 0
138 2 0.1234279018714982 2.7186002083303724 9.30846088517158 43.61403355442606 0 0 0
136 1 -0.152015532004051 9.922252610130865 9.346332885299837 42.89043617790267 -1 0 0

Velocities

153 0.0028761654314395494 0.0044305597734227405 0.007656870314142699
23 -0.0019965512807858846 0.0021008417624798965 -0.002860857778702155
257 -0.002260866165529718 -0.0006871695620569235 -0.007285998505472616
239 -0.00859070623042957 -0.00015129473641765654 0.006696895076846241
4 0.01316728393897103 -0.01041142639662522 -0.02591519695226927
21 -0.017982917553522115 -0.005079685118631497 -0.03181738501776077
255 0.0016567600369333938 0.0017369793513043494 0.003934244048460461
11 -0.000648816213117379 0.00640529712416922 0.0006725519272116171
15 -0.018106655070759013 0.0023162579203459617 0.00011334732124012449
5 -0.03102170056901079 -0.00584064161281501 0.030410773539365315
151 -0.0037781492433128635 -0.003413173545203591 -0.00733288988535147
152 -0.0010764456737978178 0.0007969864671446366 0.00858504579084383
145 -0.00042796954755886055 -0.0013923403601302808 0.0003295351236556336
146 -0.0012992944847646515 0.00017041739987793647 -0.008511436842845388
13 -0.004905085062550971 -0.02895296813508373 0.00018640679548765718
142 0.0024395007232873144 -0.0006828762215016543 0.006192653598287601
240 0.023848044452090836 0.010286715932822125 -0.030667275041067792
144 -0.0018033695864099945 0.001961321490587622 -0.00017095829444629257
177 0.003629772977949402 0.0009496135242687531 -0.00504867371198935
35 -0.003970828744225207 0.0036423559040551848 0.004975720266406838
31 0.0054335800724564275 -0.0039188895929923966 0.014688242229582003
36 -0.004303723514026296 -0.0009528095557275584 0.0015305877650233243
38 0.004535510843359616 0.008888747051766966 -0.0033476439137098027
30 0.0018247112895951872 -0.0030412152792865313 0.00763222275088212
37 0.0034894216640509275 -0.009901949178614942 0.014878590236878205
34 -0.011057398191741988 0.0055181810817595085 0.005098766609180743
27 0.019770570974961498 -0.0021802216613608523 0.007304854001713906
32 -0.0033163745705933785 0.003659404000599252 -0.005024729361572884
33 0.005864701843546633 -0.002568584701099603 0.0009883471287003257
39 0.0029515462691794875 0.005107182498829975 0.0031648180643343037
25 0.0033074704240960966 -0.002311255145688377 0.002046556555522646
40 0.0005345532785950438 -0.00011816075434881899 -0.004373629485541709
29 -0.00677333767414348 0.0018818780122564244 0.0013876921633932616
41 -0.003704555141776378 -0.004491137265741933 0.006186596375593163
149 0.014424957260913808 0.0024051408535618424 -0.01343051426452332
141 0.0020224141627560696 -0.005925244706689037 -0.00041584079921599905
184 0.004285253826880981 0.01174851815943426 -0.00012301860726804053
188 0.01471691008409254 0.0037724287225970243 0.005028806267363769
186 0.0035099946851268613 0.0026742863854268824 -0.005120600915057507
181 0.004053175764193105 0.005610566469375272 0.007390028434788261
191 -0.014777934718486247 0.008831772362846161 -0.024255146435784185
199 -0.0038489694538737206 -0.015397219929597887 0.00028655409840733275
182 0.010404476624619317 -0.0018144603927638275 0.000953771296352417
189 -0.014808357750639335 -0.015143012051140804 0.009185865748442434
170 -0.0012468160028730418 -0.004595853741604932 0.013160870583000629
190 0.0025349034780125434 -0.0037540445174349853 -0.004164364323508402
185 0.001017042068228622 -0.002194267551927415 -0.0013465264735896794
180 -0.01177300009587295 -0.027567153937687734 -0.011017509129064448
42 0.002184505437624815 -0.006792550501086261 -0.003760360685600566
173 -0.0025440730746680166 0.00255870913213106 0.006086438068625725
187 -0.018990498069107555 -0.004794254311009962 0.020734783259487303
44 0.0011926004147372565 0.00723093983361462 0.004208433716594048
72 0.002809127381230685 -0.0026079032624279747 -0.0025826637595393583
66 -0.004230958806173072 -0.003814556203971663 0.0022329773679668
171 -0.004854321018787675 0.0035989599274335276 -0.0035903104441282704
192 -0.04612769483674788 0.004021797297097674 -0.005631727176202217
71 0.004092480480348915 -0.001059678628938492 -0.004710312281575264
68 0.0029029971249050534 -0.007995139709608207 -0.0071840788129499435
176 -0.0033319239894583227 -0.003241256363173482 -0.006284381487540988
65 -0.0015704838899177084 -0.011024053146924943 0.0017608686866548312
70 -0.004216541767231929 0.006186146565056815 0.0031955303832547567
67 0.002531707440893442 0.0005533956474044534 -0.0007198816651394584
172 0.0013853136149013711 0.0019484584670202173 -0.0014304967844695681
174 -0.0035147891491011446 0.0018491390016981523 0.00010764242415957753
64 3.7944513900441266e-05 -0.002661355502467736 0.002143768232164644
63 0.004485614140095065 0.002896134713204744 -0.004893378908613466
69 0.008473122735398818 0.0068242248953310535 0.024123167406577113
175 0.0025066832530810847 -0.00709804696120427 0.0007866406269797656
204 0.0022350166588336008 -0.0029004690959401136 0.0026541591275258316
74 0.010511707898838311 -0.014849909323488326 0.0012651531350721386
82 -0.002856181275859339 -0.010216983570639911 -0.02563886761316998
77 0.0024892409538907942 0.006244957095824476 0.0006618739691685415
85 -0.002154377862723118 -0.022094620810155646 -0.0057770347611528616
83 -0.003612438406979734 0.004221179090742158 -0.0011806694326181608
88 0.008284196806718462 0.023507043921715896 0.023573342643520647
79 0.0016398486765951572 -0.008532530739203847 -0.004461673609529629
78 -0.00540839004310252 0.014217561124956495 -0.001191446337292067
80 -0.005803220410219661 -0.00589710653327469 -0.0060352428586613145
87 0.0026243540412331443 -0.0011343116043327547 -0.00954171438629222
201 -0.006552156931145542 -0.004764001509028185 -0.00573898067013382
76 -0.00034928185541220386 0.0010910302486583962 0.0067193440244228166
211 -0.006731826755380839 -0.012997654829998507 0.015471569852274403
89 0.001163737797366721 -0.0015366535919954848 -0.0021538379810659186
205 -0.004572043136858774 0.0016770024685298826 -0.003818125362558114
91 -0.025193240183182888 0.010217647179876908 -0.02479009412124837
216 -0.0003317077678239732 0.0029177224969021837 -0.0024036015404555276
218 -0.0023080004583803325 -0.0024506009907163226 0.004731720842052503
200 -0.0012459630049392162 0.005643847357137707 -0.007713914773639991
226 0.011541796123074152 -0.009225806400323396 -0.01879369023036695
229 -0.005264632045573392 -0.0029828564125739475 -0.004533480382418736
228 0.0042050251697284624 -0.0021077115788726776 -0.0003742745483080426
220 -0.0008919023820411287 0.006153258593773371 0.004338202409311954
227 0.00806603394726502 -0.003261161946075977 -0.01741805028937788
219 -0.0005154733943217736 -0.002739271140811428 -0.003865242841587478
209 -0.023855197336428952 -4.763429038584146e-05 -0.012211054462914159
225 0.009762204605477382 0.0013627623108009158 0.017870297084958287
217 0.004533379152187631 0.001468102842042862 5.015170546442583e-05
221 0.0005305837118596596 0.007292597305196955 -0.009280108674248253
222 0.0033567976419773007 0.0005936978619307467 -0.0020482226853653046
111 -0.00048149991884553815 0.0019920089359457336 -0.0033988651958391934
224 0.002435787012670215 -0.008014931898218326 -0.001877213391964324
118 -0.0003551999125779784 0.004387081937520896 -0.0020132448638967245
114 -0.010231705196197457 0.0016982511518746676 0.0001697184071245307
117 0.0010121670302063281 -0.0029767386918682507 0.001971154367336464
127 0.003593443734942714 -0.0016041518083670652 0.001968737750578846