ITEM: TIMESTEP
0
ITEM: NUMBER OF ATOMS
5160
ITEM: BOX BOUNDS xy xz yz pp ff pp
0.0000000000000000e+00 6.9085630000000000e+00 0.0000000000000000e+00
0.0000000000000000e+00 3.0000000000000000e+02 0.0000000000000000e+00
0.0000000000000000e+00 3.9715601999999997e+01 0.0000000000000000e+00
ITEM: ATOMS id q xu yu zu
1 0.132989 13.9695 12.6517 3.68518
2 -0.156078 14.9237 12.1651 3.48105
3 0.281458 15.9243 12.7794 2.62466
4 0.124528 18.2884 7.24495 4.55908
5 0.0970187 14.3984 10.4284 4.67607
6 0.137244 17.855 8.55742 6.7542
7 -0.120809 15.2313 10.918 4.08966
8 -0.172489 17.2796 12.302 2.72327
9 0.133202 18.1343 12.9126 2.35667
10 -0.0176015 16.5325 10.2438 4.0026
11 -0.320308 18.0872 8.20327 4.05922
12 -0.113859 17.5232 11.0385 3.28253
13 0.102107 17.9014 8.07571 2.97481
14 -0.300614 17.4881 9.41019 6.16456
15 0.108953 19.0589 8.71059 4.19497
16 0.1025 18.5232 10.5936 3.25421
17 0.0162672 16.8939 8.98789 4.75792
18 0.131404 18.2785 10.1757 6.03912
19 0.137921 16.723 9.89466 6.82388
20 -0.0115483 15.8241 7.99447 5.1032
21 0.103167 16.4383 6.54108 3.65637
22 0.116439 14.81 9.16901 6.72456
23 -0.121461 15.7511 6.68704 4.45918
24 -0.113179 14.8787 8.19715 6.21289
25 -0.14992 14.9763 5.62606 4.98462
26 -0.149325 14.0922 7.18495 6.7637
27 0.128335 14.9561 4.62585 4.56509
28 0.143563 13.4586 7.38512 7.62194
29 0.255448 14.2141 5.83425 6.20325
30 -0.512363 13.906 4.73773 6.92087
31 0.154723 15.0935 4 9.14078
32 0.256641 13.3471 4.87018 8.1457
33 -0.128339 14.0989 4.44506 9.29457
34 0.152911 11.4717 5.68832 7.52033
35 -0.155863 12.0696 5.43239 8.41223
36 -0.0913915 13.7485 4.73036 10.6476
37 0.148071 14.3926 4.41946 11.4533
38 -0.051611 11.558 5.68517 9.73818
39 -0.0611075 12.4254 5.26819 10.8974
40 0.371347 10.3381 6.36484 10.3312
41 -0.468012 9.41566 6.7868 9.65955
42 0.381835 11.7761 5.58223 12.2534
43 -0.464745 10.4342 6.31256 11.8625
44 -0.4631 12.2951 5.26265 13.266
45 0.173821 7.65898 6.81436 11.8356
46 0.166016 9.52904 6.94527 12.8977
47 -0.121912 8.13528 7.20177 12.717
48 0.225058 11.0159 7.2008 14.4385
49 -0.148036 9.99546 7.48117 14.1394
50 -0.0444942 7.4209 8.09443 13.5969
51 0.172803 6.35777 8.33592 13.377
52 0.177662 9.35916 8.33287 15.1067
53 -0.0933157 8.01876 8.7062 14.7236
54 -0.463156 12.3285 8.07617 16.0676
55 -0.434436 10.0365 8.84398 16.3433
56 0.2085 7.41493 9.39391 15.3277
57 0.390832 11.4678 8.56344 16.7641
58 -0.489108 8.50561 10.6781 17.3188
59 0.379378 9.5177 10.0643 17.2973
60 -0.0536326 11.7983 9.32825 18.057
61 -0.0640906 10.6322 10.2566 18.3141
62 0.148491 13.7678 8.65395 18.7765
63 -0.0722906 12.9518 9.33811 18.9016
64 -0.133578 10.6367 11.1441 19.4526
65 0.155421 9.75944 11.7651 19.7272
66 -0.167725 12.8878 10.2486 20.0091
67 0.217355 11.8024 11.1439 20.2534
68 0.13146 13.7664 10.3202 20.6715
69 0.165075 13.7034 12.2574 19.0755
70 -0.50893 11.8075 12.2876 21.1124
71 -0.164168 13.7177 13.0814 19.7863
72 0.263034 12.7761 13.1392 20.8982
73 0.120498 15.4568 13.894 18.7645
74 0.125234 16.7658 15.5601 18.3258
75 0.160699 14.9437 17.3362 19.4538
76 -0.108276 14.7348 14.0279 19.5916
77 -0.137821 12.9328 14.2748 21.7914
78 0.165649 12.2383 14.4246 22.6273
79 -0.313608 17.2685 15.4996 19.3001
80 -0.0204376 15.0532 15.0444 20.5871
81 -0.319456 15.8497 17.3595 20.0751
82 0.135781 18.2089 16.1435 19.2531
83 -0.111428 14.0718 15.1084 21.6628
84 0.107871 15.4851 17.9081 20.9842
85 0.146386 17.6432 14.4615 19.55
86 0.136463 16.6385 17.9373 19.6744
87 0.0210508 16.2981 15.951 20.4287
88 0.12893 14.1633 15.8895 22.4419
89 -0.0137775 17.1813 16.0951 21.6949
90 0.135321 16.0676 14.6322 22.8788
91 0.110625 18.6759 17.6289 21.0028
92 -0.113303 16.8172 15.4121 22.941
93 -0.12376 18.282 17.0362 21.8334
94 -0.16832 17.4179 15.6966 24.1939
95 -0.160798 18.9413 17.2038 23.0922
96 0.130682 17.052 15.1935 25.0468
97 0.120425 19.7665 17.8957 23.0972
98 0.223229 18.6198 16.5255 24.3041
99 -0.521783 19.5931 16.3656 25.2943
100 0.138165 21.1517 15.0699 27.0148
101 0.274292 19.2877 16.2415 26.5569
102 -0.140118 20.221 15.4866 27.4117
103 0.150848 17.3886 17.3847 26.4926
104 -0.157146 18.048 16.7845 27.1154
105 -0.0933141 19.9784 15.1935 28.7464
106 0.150016 20.681 14.6672 29.3432
107 -0.0632622 17.7807 16.4613 28.4772
108 -0.0591204 18.7399 15.603 29.3323
109 0.385529 16.5609 16.8931 29.259
110 -0.484816 15.7172 17.6714 28.9078
111 0.363059 18.105 15.3658 30.6777
112 -0.467055 16.6661 16.1821 30.5981
113 -0.446862 18.5939 14.6865 31.5174
114 0.179995 15.7344 16.3381 31.7453
115 0.243026 16.9317 15.192 33.0873
116 0.180614 14.2597 17.5843 30.6036
117 -0.126075 15.9597 15.7502 33.032
118 -0.12251 14.5303 17.1107 31.5895
119 0.202732 15.097 15.8798 34.1856
120 -0.0702301 13.6145 17.1656 32.6703
121 0.168233 12.6907 17.7149 32.5345
122 -0.456659 13.5278 16.0034 36.949
123 -0.0884629 13.8367 16.5283 33.9208
124 -0.407058 15.4584 15.4703 35.5428
125 0.392989 14.5679 15.4414 36.8142
126 -0.436155 17.3724 13.9677 35.0867
127 0.376467 16.6733 14.4675 35.9073
128 0.226626 13.1302 16.5184 34.6914
129 -0.0626959 15.2893 14.7065 37.9439
130 -0.0665293 16.5499 14.083 37.3495
131 0.168283 14.0643 14.9044 39.7394
132 -0.127851 15.0053 14.5145 39.3325
133 -0.0918661 17.4297 13.2832 38.1826
134 0.139441 18.3315 12.9246 37.6694
135 0.248124 15.9093 13.7454 40.1225
136 -0.163776 17.0842 13.1049 39.5362
137 -0.521666 15.421 13.5387 41.3972
138 0.125913 17.7441 12.4872 40.1742
139 0.146672 15.4513 16.6214 2.62306
140 -0.16493 16.2355 16.4748 3.32154
141 0.26344 17.626 16.7483 2.97081
142 0.137539 18.3954 14.4317 7.81622
143 0.112666 14.8963 15.6964 4.79831
144 0.107014 14.8291 17.0586 7.12543
145 -0.103221 15.9536 15.916 4.57226
146 -0.148384 18.6569 16.538 3.99645
147 0.137916 19.6754 16.7729 3.7907
148 -0.0139666 16.9205 15.694 5.66351
149 -0.313076 17.8139 15.3931 7.97657
150 -0.116791 18.3107 15.9345 5.22634
151 0.112289 18.5284 16.2004 7.8323
152 -0.32166 15.8682 16.9525 7.44293
153 0.141551 17.5387 15.4602 9.0761
154 0.102865 19.1354 15.8241 5.94005
155 0.0189435 16.5227 15.5336 7.07443
156 0.123101 15.8793 17.1919 8.54965
157 0.149219 16.3946 17.7748 6.96842
158 -0.0145162 15.4762 14.5019 7.39098
159 0.139585 15.7413 13.1486 5.643
160 0.132871 14.9571 15.4342 9.41055
161 -0.113088 15.1511 13.3679 6.51345
162 -0.110334 14.7756 14.6197 8.66806
163 -0.157842 14.1762 12.4657 6.90681
164 -0.171434 13.8451 13.6407 9.06993
165 0.122558 14.0084 11.541 6.38323
166 0.152519 13.4816 13.7149 10.0864
167 0.246923 13.4832 12.5332 8.22913
168 -0.530277 12.5012 11.6575 8.54014
169 0.147829 11.6565 9.4671 9.91262
170 0.258464 11.7722 11.6503 9.68128
171 -0.132625 11.1684 10.4266 10.1708
172 0.139729 11.4803 13.7904 9.9434
173 -0.145644 11.0555 12.8194 10.1387
174 -0.0887472 10.0245 10.2549 11.0429
175 0.160573 9.69423 9.30222 11.3673
176 -0.0315892 9.89695 12.7575 10.977
177 -0.0572093 9.32881 11.4641 11.4148
178 0.36926 9.176 13.8707 11.7879
179 -0.464263 9.55993 14.9934 11.8177
180 0.403758 7.99793 11.6588 12.2325
181 -0.45119 7.95433 13.155 12.5509
182 -0.479584 7.11583 10.8875 12.436
183 0.169119 5.34818 12.5098 13.6606
184 0.174309 7.08952 13.8659 13.5496
185 -0.117608 5.79044 13.4627 14.0716
186 0.239584 8.46778 15.4533 13.7381
187 -0.146167 7.5439 15.0624 14.1603
188 -0.083764 5.19616 14.1708 15.1597
189 0.12682 4.25756 13.8114 15.6065
190 0.174122 6.98959 15.8822 15.204
191 -0.125486 5.76597 15.3563 15.7221
192 -0.407375 9.91127 17.259 14.3389
193 -0.427017 7.67924 17.1569 15.5703
194 0.164083 5.23497 15.9091 16.4896
195 0.378347 9.1985 17.5526 15.2398
196 -0.52719 6.51685 17.6509 17.6254
197 0.378771 7.46317 17.856 16.9004
198 -0.0478709 9.75393 18.4645 16.3197
199 -0.0789002 8.65711 18.757 17.3003
200 0.200727 11.887 18.9232 15.821
201 -0.0426679 11.0479 19.1318 16.5022
202 -0.146655 8.84267 19.7728 18.3017
203 0.160187 8.01516 20.0398 18.9759
204 -0.155371 11.2414 20.0447 17.5559
205 0.251354 10.1287 20.389 18.4754
206 0.171363 12.2062 20.5226 17.6792
207 0.167342 10.8455 23.1833 21.042
208 -0.497486 10.2955 21.2995 19.4471
209 -0.122018 11.4848 22.3011 21.1849
210 0.256551 11.3276 21.1837 20.3088
211 0.118921 12.5906 23.2078 22.8635
212 0.110822 15.5117 19.3659 22.6655
213 0.117707 15.8607 22.4282 24.13
214 -0.120455 12.4506 22.3041 22.2365
215 -0.178874 12.1156 20.0084 20.5078
216 0.131199 12.0082 19.1452 19.8266
217 -0.319649 15.1096 19.6694 23.6727
218 -0.00970214 13.2613 21.1388 22.4464
219 -0.314452 15.2543 22.1942 23.2624
220 0.118958 15.9679 19.7449 24.3837
221 -0.123934 13.0096 19.9722 21.6213
222 0.133355 16.0764 21.8805 22.6429
223 0.135398 14.4847 18.8762 24.0378
224 0.14563 14.779 23.0157 22.7408
225 0.0137451 14.2551 21.0287 23.5533
226 0.0974105 13.6628 19.0933 21.7795
227 -0.0105471 13.5315 21.1541 24.8712
228 0.115211 11.5776 20.4031 24.1146
229 0.112144 15.3889 21.6405 25.9917
230 -0.115525 12.1324 20.7661 24.9929
231 -0.109355 14.2756 21.5308 26.0985
232 -0.159937 11.4804 20.9171 26.2427
233 -0.136988 13.5943 21.6944 27.3107
234 0.130336 10.421 20.696 26.4045
235 0.147975 14.1505 21.9738 28.2472
236 0.246236 12.1506 21.5372 27.369
237 -0.518217 11.4809 22.0942 28.4182
238 0.156965 11.4709 19.3655 28.8266
239 0.253672 11.0779 21.4323 29.5215
240 -0.149656 11.1379 19.9887 29.6263
241 0.164614 10.3162 23.2816 30.5288
242 -0.130737 10.5385 22.1945 30.63
243 -0.0859812 10.899 19.3357 30.8567
244 0.155332 10.9922 18.2505 30.9837
245 -0.0393607 10.3227 21.6239 31.9131
246 -0.0681995 10.5091 20.1156 32.0084
247 0.373656 10.091 22.1342 33.3274
248 -0.427225 9.75291 23.307 33.4698
249 0.384823 10.5737 19.6952 33.4776
250 -0.42591 10.4339 21.0139 34.2966
251 -0.44181 10.9331 18.6291 33.9351
252 0.165028 10.7567 21.1854 35.8099
253 0.210926 12.666 20.3859 35.5673
254 0.163254 8.80053 22.0913 36.2805
255 -0.140959 11.9366 20.663 36.3854
256 -0.117734 9.74373 21.6522 36.7121
257 0.175319 12.2116 20.4521 37.7525
258 -0.0901909 9.90374 21.3903 38.0994
259 0.144492 9.14132 21.7333 38.848
260 -0.45877 13.3292 19.7341 40.7025
261 -0.121457 11.0993 20.8236 38.6031
262 -0.440076 13.5366 19.9046 38.237
263 0.376285 13.9082 19.4457 39.6747
264 -0.426475 14.5217 19.0605 36.1404
265 0.39309 14.5783 19.1584 37.3321
266 0.192208 11.1988 20.7142 39.6923
267 -0.05369 15.2161 18.6844 39.61
268 -0.0358469 15.615 18.4538 38.1937
269 0.146685 15.7782 18.4205 41.7112
270 -0.154325 16.0603 18.1737 40.6919
271 -0.0647731 16.8095 17.6371 37.9666
272 0.192997 17.1695 17.4486 36.9723
273 0.250038 17.1536 17.3117 40.4781
274 -0.119659 17.525 17.1079 39.0828
275 -0.495823 18.0551 16.9233 41.4556
276 0.185583 18.4016 16.5185 38.8173
277 0.156358 17.2478 25.6304 2.39186
278 -0.159831 17.0439 24.8179 3.0499
279 0.256703 17.4488 23.5109 2.63421
280 0.127334 17.1503 24.3435 7.4319
281 0.115192 16.2114 26.0442 4.6216
282 0.132353 15.2915 25.9825 7.13397
283 -0.122453 16.4374 25.0448 4.32804
284 -0.132445 17.234 22.3849 3.53059
285 0.147361 17.5093 21.3362 3.29869
286 -0.00930822 16.0388 23.9189 5.14251
287 -0.314054 16.2606 23.6915 7.54113
288 -0.108817 16.4903 22.5927 4.71249
289 0.125008 15.7788 23.8581 8.5178
290 -0.316237 14.5142 25.3561 6.62638
291 0.152411 16.5399 22.6351 7.62266
292 0.14449 16.2932 21.7051 5.3326
293 0.0163847 15.2169 23.9514 6.39826
294 0.128077 14.0714 25.8176 5.73297
295 0.115149 13.6767 25.2481 7.36177
296 -0.021064 14.0844 22.8996 6.48131
297 0.141207 13.9867 22.2295 4.43636
298 0.126681 13.8493 23.2543 8.67529
299 -0.108312 13.5991 22.0569 5.41521
300 -0.112376 13.5077 22.624 7.81477
301 -0.151445 12.611 21.069 5.62141
302 -0.157719 12.6014 21.5972 8.05439
303 0.139677 12.3046 20.4561 4.7615
304 0.177451 12.2775 21.4733 9.05141
305 0.236104 12.0353 20.7991 6.92501
306 -0.533506 10.8747 20.1752 7.13936
307 0.124988 12.6813 19.1818 9.00277
308 0.222105 10.6407 20.0339 8.48196
309 -0.169548 11.6621 19.5824 9.40962
310 0.149153 8.58194 20.645 8.34765
311 -0.155543 9.37843 20.3715 9.0223
312 -0.0620218 11.5575 19.6908 10.8113
313 0.176397 12.345 19.3147 11.4571
314 -0.0539252 9.26037 20.6503 10.4543
315 -0.0566583 10.3379 20.2252 11.4148
316 0.387991 8.09315 21.1181 11.3012
317 -0.520111 7.0768 21.509 10.8005
318 0.396969 9.84069 20.2807 12.8458
319 -0.423855 8.34227 20.8219 12.8151
320 -0.434869 10.5751 20.0457 13.7622
321 0.188449 6.02561 22.2403 12.6142
322 0.18163 7.72874 21.647 13.8733
323 -0.107929 6.60174 22.4589 13.5272
324 0.20388 9.29549 21.5041 15.3862
325 -0.144716 8.362 21.9874 15.1429
326 -0.0875306 5.91577 23.2814 14.4686
327 0.174458 4.99038 23.7349 14.2747
328 0.171781 7.82028 22.8959 16.0819
329 -0.096188 6.57562 23.4691 15.7159
330 -0.447613 10.3451 24.7241 16.5077
331 -0.409286 8.4328 23.3911 17.4094
332 0.200319 6.09104 24.1454 16.47
333 0.389575 9.72558 24.2933 17.4395
334 -0.459629 6.49757 23.6372 18.8252
335 0.398481 7.62994 23.9103 18.5815
336 -0.0452022 9.83256 24.9463 18.8092
337 -0.0434059 8.50316 24.7647 19.5081
338 0.181244 11.6763 26.0645 18.9436
339 -0.0653931 10.7676 25.8125 19.4709
340 -0.135838 8.23652 25.4542 20.7447
341 0.160308 7.23886 25.3739 21.1935
342 -0.159112 10.4913 26.4279 20.7103
343 0.260062 9.2517 26.1704 21.4233
344 0.173327 11.2054 27.1242 21.1103
345 0.153173 9.24728 28.7755 21.7407
346 -0.525805 9.18591 26.3871 22.714
347 -0.160114 9.92751 28.631 22.5529
348 0.231935 10.0682 27.3428 23.1739
349 0.13966 10.661 30.6647 22.3972
350 0.108012 14.0626 29.7495 25.9208
351 0.142282 12.9152 31.5191 22.5554
352 -0.106249 10.7942 29.6931 22.9112
353 -0.166885 11.0961 27.0937 24.133
354 0.126864 11.179 26.1119 24.61
355 -0.306545 13.9833 30.2816 24.9572
356 -0.0133344 11.7601 29.5379 24.007
357 -0.304591 12.5048 31.8288 23.5072
358 0.137092 14.4804 29.6289 24.209
359 -0.109811 11.8871 28.2025 24.535
360 0.135115 11.5228 32.2345 23.2066
361 0.125083 14.6806 31.1615 25.0118
362 0.146527 13.0688 32.7102 23.8666
363 0.0223714 12.4696 30.7137 24.637
364 0.10569 12.5964 28.006 25.3799
365 -0.00988478 11.7943 31.301 25.8196
366 0.123152 9.96093 30.0638 25.5928
367 0.1134 13.4237 32.7405 26.2841
368 -0.125913 10.4817 30.8248 26.1549
369 -0.114691 12.4647 32.2954 26.6633
370 -0.164299 9.84765 31.2853 27.3475
371 -0.166738 11.8837 32.7004 27.8444
372 0.126364 8.84868 30.9504 27.6507
373 0.144934 12.3135 33.4538 28.4799
374 0.242513 10.5923 32.1202 28.2502
375 -0.520446 10.0144 32.2531 29.4615
376 0.123881 12.0785 30.5463 29.1556
377 0.258265 10.7261 31.7548 30.4752
378 -0.162721 11.8668 30.8619 30.2129
379 0.181501 9.51349 32.8113 31.9735
380 -0.121534 10.3584 32.1532 31.817
381 -0.0802186 12.6236 30.3415 31.2612
382 0.132858 13.4594 29.6543 31.0533
383 -0.034865 11.0449 31.5392 32.9029
384 -0.053612 12.298 30.6823 32.6479
385 0.379835 10.8378 31.697 34.3871
386 -0.430969 9.98631 32.385 34.8928
387 0.39412 12.8268 30.1755 33.9324
388 -0.431174 12.0088 30.7526 35.0839
389 -0.440158 13.5679 29.2273 34.0693
390 0.193802 11.9328 29.9775 36.3261
391 0.243427 13.6596 28.622 36.0217
392 0.175778 10.1443 31.0439 37.1067
393 -0.137797 12.8289 28.8698 36.7038
394 -0.100038 10.8968 30.2772 37.2778
395 0.17441 12.9007 28.2698 37.9851
396 -0.0674556 10.8426 29.5588 38.4938
397 0.147886 9.99651 29.7627 39.2652
398 -0.483235 13.3861 26.6202 40.6798
399 -0.1139 11.7794 28.5374 38.8436
400 -0.445555 14.1074 27.6103 38.5064
401 0.400061 14.0691 26.6372 39.7096
402 -0.429195 16.0252 27.8196 36.7522
403 0.366228 15.4765 27.2775 37.6668
404 0.17751 11.6715 27.9556 39.7674
405 -0.0544365 15.2753 25.7086 39.5632
406 -0.0544342 16.1042 26.1031 38.3495
407 0.167896 15.1408 24.4392 41.4393
408 -0.149375 15.6994 24.7075 40.5088
409 -0.0946298 17.2687 25.3397 38.019
410 0.161343 17.7972 25.5804 37.1134
411 0.231104 16.9083 23.9852 40.1766
412 -0.140504 17.5542 24.2528 38.8967
413 -0.499683 17.5804 23.1796 41.0381
414 0.152876 18.4337 23.6564 38.5724
415 0.154165 13.9529 33.6402 1.49521
416 -0.153879 14.0969 32.9441 2.3059
417 0.269934 14.6163 31.5927 2.07996
418 0.121007 15.1956 33.9932 6.60759
419 0.12083 13.4092 34.4352 3.78091
420 0.112722 11.7038 34.1963 6.87648
421 -0.11104 13.7981 33.4084 3.60121
422 -0.133278 15.0554 30.7708 3.20348
423 0.142291 15.564 29.7979 3.07291
424 -0.014036 13.9673 32.4695 4.71746
425 -0.315287 14.5167 33.188 7.05864
426 -0.118433 14.6696 31.2036 4.4827
427 0.106388 14.1431 33.5651 8.06113
428 -0.318059 12.3036 34.002 5.91973
429 0.134485 15.1418 32.32 7.22982
430 0.134125 14.7573 30.5935 5.36288
431 0.0137321 13.3218 32.7859 6.07047
432 0.126981 12.8023 34.9437 5.64977
433 0.134102 11.5583 33.7495 5.17153
434 -0.0130249 12.5879 31.6225 6.56849
435 0.132481 11.988 31.0215 4.52138
436 0.111438 12.9569 31.8448 8.79974
437 -0.116181 11.8658 30.83 5.5684
438 -0.113309 12.4542 31.2568 7.98392
439 -0.150015 11.061 29.766 5.98381
440 -0.161511 11.7014 30.1683 8.39694
441 0.133647 10.6006 29.1366 5.26437
442 0.161142 11.58 29.9625 9.48394
443 0.254669 10.9347 29.3912 7.39305
444 -0.538442 9.9317 28.5478 7.59166
445 0.134365 11.7884 27.1931 9.05642
446 0.237946 9.73717 27.9324 8.79669
447 -0.162016 10.8137 27.2439 9.49831
448 0.152605 7.61664 28.4233 8.6651
449 -0.140987 8.4173 28.0063 9.29037
450 -0.0752857 10.5642 26.6809 10.7624
451 0.148334 11.3744 26.1918 11.3372
452 -0.0590327 8.12058 27.503 10.5963
453 -0.0677538 9.2402 26.7774 11.329
454 0.37419 6.97336 27.5519 11.5854
455 -0.465764 6.11409 28.4023 11.5473
456 0.375762 8.74444 26.3106 12.6939
457 -0.435062 7.21903 26.6707 12.798
458 -0.454469 9.40047 25.6479 13.4388
459 0.186605 4.65108 27.2699 13.349
460 0.173201 6.61087 27.0079 14.1709
461 -0.0975812 5.23924 27.3282 14.2533
462 0.200285 8.39867 26.988 15.3002
463 -0.141781 7.323 27.2341 15.387
464 -0.070643 4.63905 27.8068 15.4725
465 0.172142 3.6031 28.0225 15.4869
466 0.168872 6.8439 27.7678 16.6222
467 -0.115292 5.45209 28.015 16.6256
468 -0.460384 8.89638 30.1303 16.183
469 -0.442947 7.66233 28.4953 17.7043
470 0.1864 4.92709 28.3621 17.5364
471 0.380407 8.46205 29.7769 17.2304
472 -0.502328 5.95539 28.3876 19.4817
473 0.389255 6.94603 28.8774 18.9909
474 -0.0479722 8.33447 30.8106 18.3718
475 -0.0548844 7.5444 30.2225 19.4881
476 0.173223 9.53104 32.4871 17.5669
477 -0.0739656 8.97632 32.0763 18.4054
478 -0.147727 7.6391 30.9298 20.7306
479 0.143882 7.09209 30.5094 21.582
480 -0.162739 8.91835 32.7573 19.6754
481 0.237357 8.31074 32.1927 20.847
482 0.13626 9.43999 33.7124 19.7301
483 0.137839 7.13208 34.4239 20.4785
484 -0.538065 8.47956 32.7041 22.1171
485 -0.177874 7.20682 34.7505 21.5194
486 0.243054 7.9818 33.8893 22.415
487 0.117594 6.04178 36.579 21.2431
488 0.124682 7.55011 38.9134 22.428
489 0.118568 4.18086 37.3448 22.5284
490 -0.112114 6.57525 35.927 21.9752
491 -0.170983 8.05785 34.3603 23.7994
492 0.130117 8.64135 33.7967 24.5015
493 -0.307593 7.11993 38.8882 23.4864
494 -0.0199047 6.67339 36.3732 23.3387
495 -0.309519 4.89936 38.15 22.7808
496 0.120059 6.6906 39.9167 23.6979
497 -0.120786 7.40983 35.5316 24.2383
498 0.128533 4.26266 38.8843 23.266
499 0.10931 8.01865 38.7808 24.1106
500 0.134291 5.2755 38.5562 21.802
501 0.0196554 6.09084 37.7117 23.6923
502 0.12261 7.51523 35.9408 25.2196
503 -0.0187511 5.66397 37.6758 25.1668
504 0.119687 4.05365 36.1401 24.8876
505 0.0989491 7.10062 39.1525 25.9168
506 -0.123091 4.59732 36.7665 25.5989
507 -0.131558 6.32149 38.4819 26.1952
508 -0.146692 4.20865 36.677 26.9513
509 -0.18643 5.94415 38.3371 27.5811
510 0.13728 3.3608 36.0086 27.2457
511 0.132492 6.53871 38.8926 28.3358
512 0.246074 4.92788 37.4414 27.9588
513 -0.524499 4.43521 37.2646 29.1972
514 0.131915 6.91508 36.484 28.8647
515 0.247112 5.30236 37.0533 30.2197
516 -0.161554 6.69487 36.6988 29.9202
517 0.190863 3.81515 37.4452 31.7407
518 -0.122517 4.83797 37.2122 31.5471
519 -0.0913025 7.65633 36.5046 30.9132
520 0.148042 8.63768 36.1933 30.6427
521 -0.036501 5.79115 37.0385 32.6299
522 -0.0639856 7.23901 36.7137 32.2941
523 0.410876 5.7177 37.2844 34.1118
524 -0.40958 4.91737 37.9972 34.6098
525 0.370756 8.06899 36.7633 33.5633
526 -0.404711 7.1512 36.9992 34.7642
527 -0.436652 9.24678 36.5243 33.6518
528 0.191348 7.4642 36.6685 36.1963
529 0.249079 9.29806 35.6142 35.8023
530 0.225738 5.67291 37.6215 37.0565
531 -0.125172 8.63054 35.9514 36.6137
532 -0.0724049 6.59405 37.0543 37.2748
533 0.195644 8.9892 35.5364 37.9169
534 -0.0886995 6.89895 36.8153 38.6414
535 0.167741 6.25817 37.1424 39.4535
536 -0.470877 9.88555 33.9266 40.5946
537 -0.119151 8.06369 36.0235 38.914
538 -0.432449 10.1195 34.5796 38.1838
539 0.371576 10.4723 33.8267 39.5479
540 -0.411766 11.7063 34.8692 36.3615
541 0.396702 11.3158 34.2556 37.3128
542 0.16371 8.24444 35.7563 39.9488
543 -0.0678851 11.7123 32.9823 39.3303
544 -0.0511751 12.2177 33.1808 37.9006
545 0.157893 12.118 31.9706 41.2799
546 -0.14956 12.4239 32.1533 40.2578
547 -0.0742109 13.4077 32.5047 37.4775
548 0.177654 13.8113 32.5863 36.4914
549 0.230448 13.6416 31.4895 39.7851
550 -0.135259 14.0135 31.5891 38.4264
551 -0.500207 14.4704 30.8507 40.7325
552 0.160031 14.8698 31.0241 38.025
553 0.15912 14.4992 40.1555 6.41629
554 -0.138593 14.4081 39.5625 7.35555
555 0.246861 14.6426 38.1655 7.25283
556 0.125661 15.2968 40.2379 11.9084
557 0.10444 13.6757 41.1877 8.65624
558 0.116919 13.3243 41.8426 11.2303
559 -0.124558 13.9578 40.1342 8.58324
560 -0.159775 14.57 37.3061 8.40755
561 0.123755 14.707 36.2406 8.31871
562 -0.0104592 13.9049 39.2966 9.75437
563 -0.312615 14.3969 39.6929 12.2298
564 -0.106699 14.2466 37.8806 9.67004
565 0.169161 13.9903 40.2334 13.1006
566 -0.322526 12.5925 41.0287 11.0207
567 0.145032 14.7124 38.7434 12.5827
568 0.149982 14.1715 37.2368 10.543
569 0.0162265 13.2798 39.6034 11.065
570 0.111652 12.0167 41.1944 10.099
571 0.117016 11.8224 41.0605 11.8041
572 -0.0205596 12.1688 38.627 11.4234
573 0.137927 11.9135 38.1544 9.30157
574 0.168249 12.066 38.7081 13.6785
575 -0.108637 11.5223 37.9549 10.2776
576 -0.107886 11.6805 38.2774 12.7688
577 -0.14238 10.517 37.0318 10.4922
578 -0.164961 10.6923 37.3021 12.9571
579 0.133761 10.0536 36.5175 9.59859
580 0.152196 10.4348 37.0639 13.9878
581 0.25505 10.0039 36.6555 11.8329
582 -0.536804 9.0881 35.7118 11.9427
583 0.138492 7.96204 33.3714 12.8623
584 0.2517 8.38644 35.523 13.0992
585 -0.142294 7.72595 34.2965 13.4874
586 0.145342 8.50479 37.6268 13.7622
587 -0.152207 8.02537 36.6517 13.8729
588 -0.0747656 6.77864 34.0617 14.5345
589 0.152547 6.35134 33.0701 14.7354
590 -0.0432309 7.01654 36.4907 14.9204
591 -0.0590604 6.4211 35.1883 15.3564
592 0.388154 6.44598 37.5514 15.8483
593 -0.474865 6.58192 38.6995 15.5583
594 0.377997 5.41192 35.4013 16.5102
595 -0.457471 5.4702 36.931 16.8749
596 -0.474861 4.76036 34.56 17.0651
597 0.156956 2.92245 36.2464 18.0069
598 0.171666 4.55782 37.7342 17.7641
599 -0.128651 3.32804 37.2387 18.3032
600 0.230477 5.79737 39.4529 17.8419
601 -0.152044 4.8723 39.0542 18.2097
602 -0.103912 2.5234 38.0237 19.1775
603 0.124127 1.60021 37.637 19.5637
604 0.17491 4.11221 39.931 19.0652
605 -0.117718 2.88001 39.3691 19.4983
606 -0.470101 6.841 41.1257 19.0646
607 -0.473923 4.49613 41.2818 19.6039
608 0.188932 2.17897 39.9511 20.1278
609 0.40967 5.94819 41.7155 19.5779
610 -0.520017 2.95001 41.6667 21.5951
611 0.390548 3.84628 41.9421 20.8948
612 -0.0557956 6.13102 42.8724 20.6131
613 -0.0576539 4.87212 43.0308 21.3633
614 0.171864 8.2299 43.4594 20.2344
615 -0.0605225 7.3388 43.673 20.8039
616 -0.102016 4.83587 44.1094 22.3094
617 0.180858 3.89277 44.3117 22.8875
618 -0.129395 7.27122 44.5559 21.923
619 0.230256 6.05239 44.7848 22.6646
620 0.198777 8.166 45.136 22.2152
621 0.122834 6.52611 46.2354 26.5144
622 -0.486407 6.11736 45.4707 23.8997
623 -0.154578 6.96573 45.2661 26.1824
624 0.262858 6.79823 44.8146 24.8273
625 0.106808 7.73738 44.8377 28.1552
626 0.136425 10.3027 40.5161 27.9463
627 0.13541 11.0709 42.9975 27.3768
628 -0.114629 7.63214 44.439 27.136
629 -0.152991 7.32528 43.5027 24.5138
630 0.149148 7.12381 43.0228 23.57
631 -0.310245 9.64813 41.0153 27.254
632 -0.0114421 8.19466 43.1522 26.8274
633 -0.307503 10.3525 43.1269 28.192
634 0.108062 8.83741 40.2582 27.0017
635 -0.123085 8.01023 42.6958 25.4524
636 0.116708 10.2463 44.2043 28.2806
637 0.113765 10.1768 41.2368 26.2863
638 0.127 10.735 42.7929 29.1699
639 0.0174978 9.01125 42.3478 27.8181
640 0.1071 8.45277 41.7645 25.1128
641 -0.000855154 8.18318 41.9901 28.9946
642 0.111043 6.56888 40.983 27.7629
643 0.107675 9.41017 43.2155 30.4274
644 -0.120329 6.90243 41.3302 28.7648
645 -0.121278 8.52989 42.6023 30.2802
646 -0.149607 6.0926 41.0645 29.874
647 -0.16286 7.73117 42.2801 31.3779
648 0.144108 5.12226 40.5281 29.7579
649 0.125905 8.00079 42.6951 32.3761
650 0.251995 6.51505 41.5038 31.2048
651 -0.512057 5.78068 41.1945 32.2801
652 0.148871 8.25662 39.8832 32.4514
653 0.258409 6.40889 40.8415 33.4285
654 -0.155024 7.73548 40.1466 33.4089
655 0.167737 4.90033 41.6861 34.7288
656 -0.131426 5.87009 41.2119 34.6887
657 -0.055521 8.32288 39.6973 34.6212
658 0.207976 9.29099 39.1306 34.592
659 -0.0337261 6.45545 40.7844 35.937
660 -0.0392355 7.72552 39.9828 35.9306
661 0.389969 6.10179 40.9732 37.4132
662 -0.43992 5.1369 41.497 37.8603
663 0.387787 8.31552 39.5961 37.2415
664 -0.427537 7.27115 40.2219 38.2759
665 -0.411935 9.37074 39.0617 37.3336
666 0.187067 7.49632 40.3415 39.6975
667 0.242938 9.28498 39.0466 39.7473
668 0.180476 5.85986 41.7609 40.0919
669 -0.150209 8.54621 39.6191 40.3698
670 -0.120338 6.68447 41.2085 40.5435
671 0.179011 8.73557 39.6676 41.785
672 -0.103176 6.85718 41.287 41.9279
673 0.112102 6.18911 41.9249 42.5347
674 -0.472075 9.90837 39.8536 44.7522
675 -0.121841 7.90394 40.5097 42.5567
676 -0.450072 9.85186 38.8934 42.4069
677 0.393993 10.4127 39.2136 43.8814
678 -0.465372 11.0758 37.9206 40.501
679 0.392888 11.0532 38.3418 41.6192
680 0.178851 8.0756 40.4759 43.6525
681 -0.0457459 11.8455 38.6592 43.9565
682 -0.0597402 12.2026 38.1512 42.5736
683 0.156735 12.4635 38.7828 46.058
684 -0.160019 12.7291 38.4895 45.051
685 -0.0920689 13.5047 37.5073 42.3414
686 0.128641 13.8027 37.1122 41.3591
687 0.237553 14.027 37.8982 44.8161
688 -0.124643 14.3387 37.4084 43.4719
689 -0.488525 14.9684 37.6438 45.7359
690 0.17029 15.3004 36.8935 43.3434
691 0.153731 15.2833 53.7675 7.5128
692 -0.136647 14.3717 53.2312 7.80846
693 0.235056 13.7047 52.4469 6.76411
694 0.140741 12.7932 52.3987 13.1304
695 0.11919 14.5703 53.7283 9.88608
696 0.131632 10.7737 53.8727 11.1197
697 -0.12515 13.9763 53.2228 9.14542
698 -0.164628 12.5266 51.7139 7.14591
699 0.139102 11.9634 51.2087 6.40056
700 -0.0122124 12.8351 52.3917 9.56006
701 -0.307299 13.0112 52.8477 12.1417
702 -0.104951 12.1217 51.6527 8.49495
703 0.11534 14.0957 52.7755 12.0765
704 -0.310902 10.7847 52.7595 10.9742
705 0.130671 12.69 53.9161 12.282
706 0.121737 11.3069 51.0236 8.83392
707 0.0173777 12.2752 52.1642 10.9293
708 0.118653 10.2161 52.5286 10.0382
709 0.142237 10.2369 52.401 11.8768
710 -0.00385238 12.2504 50.7268 11.3459
711 0.108953 10.1292 50.3629 10.8082
712 0.105686 14.3206 50.7088 12.2147
713 -0.121606 11.0544 49.9636 11.1705
714 -0.123444 13.4114 50.1256 12.0138
715 -0.155689 10.9223 48.644 11.706
716 -0.139612 13.2624 48.8115 12.5139
717 0.136046 9.95921 48.084 11.6136
718 0.160499 14.037 48.3257 13.0646
719 0.225441 12.0953 48.0008 12.2094
720 -0.495186 12.2063 46.5794 12.2635
721 0.138207 12.0307 44.0225 12.145
722 0.274156 11.3276 45.9676 13.0092
723 -0.131031 11.3215 44.5335 12.7954
724 0.164434 10.4555 47.5941 14.1919
725 -0.158433 10.3669 46.5915 13.8859
726 -0.100423 10.3073 43.702 13.2969
727 0.114979 10.2872 42.6623 12.9865
728 -0.0375717 9.33489 45.78 14.4283
729 -0.0670692 9.2944 44.2839 14.1616
730 0.391149 8.28291 46.0411 15.5163
731 -0.461842 8.09704 47.1688 15.874
732 0.389799 8.20699 43.6459 14.9716
733 -0.429837 7.50642 44.7557 15.8622
734 -0.470495 7.79597 42.5442 14.8307
735 0.188877 5.59468 42.6246 16.131
736 0.183218 6.23749 44.6224 16.6681
737 -0.113156 5.3639 43.4747 16.7657
738 0.226215 6.48816 46.6546 17.4532
739 -0.137367 5.89424 45.7173 17.4875
740 -0.0746268 4.23646 43.4687 17.6216
741 0.169452 3.58335 42.6135 17.6181
742 0.177779 4.92031 45.6671 18.5657
743 -0.11533 3.99175 44.5792 18.4728
744 -0.425994 7.47911 47.6673 19.5215
745 -0.412322 5.18365 46.4941 19.7499
746 0.179348 3.10264 44.6255 19.0865
747 0.374141 6.32559 47.6882 19.7555
748 -0.461747 3.24876 46.2208 21.1918
749 0.421993 4.10219 46.925 20.7567
750 -0.0409161 5.63104 48.8096 20.4698
751 -0.0336199 4.3056 48.4319 21.062
752 0.158589 6.95727 50.4783 19.9649
753 -0.0695873 6.06392 50.1898 20.4987
754 -0.127503 3.53837 49.4304 21.7227
755 0.171571 2.53893 49.1335 22.114
756 -0.154903 5.28891 51.1605 21.1821
757 0.247654 4.0512 50.7638 21.8071
758 0.154367 5.64655 52.1985 21.1738
759 0.14287 2.81947 53.7638 24.1428
760 -0.512997 3.40597 51.6662 22.573
761 -0.14857 3.79765 53.2957 24.365
762 0.236405 4.21267 52.1889 23.5538
763 0.123469 4.3064 54.574 26.1126
764 0.112719 8.71697 52.2407 26.3673
765 0.13459 7.07307 55.7197 25.9264
766 -0.110609 4.59701 53.7139 25.4867
767 -0.159736 5.54648 51.6454 23.7665
768 0.143068 5.93277 50.7875 23.2109
769 -0.31307 8.01127 52.592 27.2218
770 -0.0121236 5.83448 53.0772 25.7943
771 -0.302468 7.64408 54.7708 25.9574
772 0.118294 8.67152 53.0307 27.9403
773 -0.11325 6.31784 52.0468 24.872
774 0.119569 8.61918 54.9333 26.4939
775 0.10922 7.58077 51.7395 27.75
776 0.143759 7.79723 54.4257 24.9023
777 0.0152378 6.84943 53.6355 26.7581
778 0.113965 7.33978 51.6119 25.0186
779 -0.0141106 6.21644 54.1346 27.995
780 0.111974 4.53858 52.6516 27.9277
781 0.104095 7.39318 55.9663 28.3587
782 -0.124527 4.97156 53.4756 28.4861
783 -0.119056 6.57396 55.3339 28.7279
784 -0.164806 4.27388 53.9028 29.6338
785 -0.152166 5.95868 55.7022 29.95
786 0.121916 3.40079 53.35 29.9335
787 0.143198 6.2745 56.6176 30.4615
788 0.230295 4.92675 54.8648 30.5033
789 -0.517534 4.5152 55.0027 31.8518
790 0.127259 6.41632 52.9856 31.6674
791 0.272876 5.18499 54.4719 32.8303
792 -0.15985 6.14837 53.3185 32.6874
793 0.180329 4.12142 55.6418 34.3139
794 -0.123145 4.84971 54.8579 34.1848
795 -0.0777496 6.69242 52.6809 33.7928
796 0.135992 7.41319 51.9152 33.624
797 -0.0418485 5.34374 54.1611 35.3145
798 -0.0535862 6.33107 53.0046 35.1953
799 0.394518 5.02001 54.2278 36.8146
800 -0.459396 3.97887 54.6841 37.1735
801 0.393529 6.89175 52.6377 36.5179