LAMMPS data file via write_data, version 19 Nov 2024, timestep = 52, units = real

5160 atoms
4 atom types

0 6.908563 xlo xhi
0 300 ylo yhi
0 39.715602 zlo zhi
0 0 0 xy xz yz

Masses

1 12.0107
2 1.00794
3 15.999
4 14.0067

Atoms # charge

25 1 -0.1502712427759808 1.1571006314135437 5.646507546780034 5.004470134818505 2 0 0
27 2 0.1247041879863903 1.1886373462976205 4.678380209905419 4.502278527894642 2 0 0
29 1 0.2687747158319801 0.3843190734453335 5.818434799567181 6.23572472839738 2 0 0
2 1 -0.1551858405811919 1.1084207640202957 12.118627798160492 3.492395431280116 2 0 0
4 2 0.1247305167984925 4.460037699378052 7.211285409372051 4.522067092369621 2 0 0
5 2 0.09926524034958389 0.5934908751686155 10.40506632103249 4.6754534472587235 2 0 0
7 1 -0.1260094414949637 1.3858586543326876 10.89260213321307 4.104434456893948 2 0 0
8 1 -0.1709759194939504 3.4730360619739766 12.25800330413398 2.710947260837333 2 0 0
10 1 -0.01303538229297972 2.698819642633816 10.249841550805222 4.0312939146769216 2 0 0
11 1 -0.3158328131730119 4.285946748934217 8.213344005209128 4.068502834902306 2 0 0
12 1 -0.1153365870336265 3.7236402747422175 11.034340813479915 3.333981264866467 2 0 0
13 2 0.1010941720056876 4.090460520618692 8.059374360472958 2.9869252570757254 2 0 0
14 1 -0.2994823549644695 3.6760862649827293 9.449870656426599 6.189413160416256 2 0 0
15 2 0.1091397277976124 5.23532975708298 8.7831220113581 4.157925606407876 2 0 0
16 2 0.1004498191321675 4.755206620420492 10.676450609077774 3.3077313857589443 2 0 0
17 1 0.01392646460006542 3.0696835277448113 8.978838635717358 4.800295329511838 2 0 0
18 2 0.1294114341764509 4.5081945886301975 10.170091481185437 6.051878594789056 2 0 0
20 1 -0.01011876464912899 1.9973394037295675 7.999771737735879 5.1259005157062205 2 0 0
21 2 0.09734218784044153 2.5536558282330746 6.458767011046987 3.6119177457637086 2 0 0
23 1 -0.1188261893731517 1.9412215076778903 6.683558036120179 4.4889876718965676 2 0 0
24 1 -0.1128125911189688 1.0646388752876939 8.21454571763971 6.232218024548292 2 0 0
138 2 0.1239879782418702 3.92867607358634 12.506141201157831 0.42640494931171785 2 0 1
165 2 0.1204608150760222 0.13752467216438619 11.588380093896019 6.345531216511737 2 0 0
1 2 0.1311346700692958 0.11405376193972515 12.562194698931954 3.5883251464830237 2 0 0
3 1 0.2684848023762985 2.1096473857291413 12.769469114684611 2.6515462614354863 2 0 0
9 2 0.1311447971600355 4.296543539764388 12.809337735487727 2.2553988237236577 2 0 0
131 2 0.1691814502613156 0.29571657545240043 14.94940664198972 0.038355593130059165 2 0 1
135 1 0.2594954145618663 2.058889287434841 13.708782156874962 0.4288432516932857 2 0 1
137 3 -0.5235290968141043 1.604327472535692 13.550740190794622 1.6900047404448053 2 0 1
139 2 0.1476238311108652 1.6222115173866871 16.518892341636406 2.5984528415675134 2 0 0
140 1 -0.1543245903332787 2.427148943956834 16.38158159899645 3.3188616731816345 2 0 0
141 1 0.257200634858041 3.7970721978567648 16.679502700289387 2.9351180725614263 2 0 0
143 2 0.1111597308338363 1.0410614038137314 15.735779798164632 4.84797030256534 2 0 0
145 1 -0.1105791910919421 2.0912228511399107 15.919774454983557 4.6047542654712315 2 0 0
146 1 -0.1441079897891959 4.8128866351128625 16.480801814814487 3.9612507421837195 2 0 0
147 2 0.1366108241691426 5.856510369286496 16.717372093480375 3.734439375603352 2 0 0
148 1 -0.008675805877189673 3.105413433345289 15.737539157823772 5.634928015803365 2 0 0
150 1 -0.1204802037557947 4.486097113722373 15.997192688010374 5.238637035691405 2 0 0
154 2 0.1026119836217704 5.294209643978092 15.859503314791231 5.961763641855752 2 0 0
159 2 0.1363671963522428 1.853872414351897 13.201640804214339 5.653908277599921 2 0 0
161 1 -0.1112654003582717 1.3492678012828376 13.336664664450238 6.612839719188972 2 0 0
269 2 0.1470068084553639 1.9282631768970964 18.43973679312946 2.045341300671153 2 0 1
270 1 -0.1570101549106549 2.1972920825481275 18.196235482136192 1.0136843386961814 2 0 1
273 1 0.2637236878813132 3.3577782573043344 17.40196026604468 0.727880541448957 2 0 1
275 3 -0.5004917836536583 4.19682405013623 16.942896059489332 1.684470524109425 2 0 1
30 3 -0.5099558176489463 6.907332642982553 4.746465320858248 6.88514464421017 1 0 0
31 2 0.1527723549312381 1.309061189662176 4.018145996091506 9.075593200214207 2 0 0
32 1 0.2399248573601817 6.413379189374242 4.901201724182795 8.187712880562716 1 0 0
33 1 -0.1266195968563954 0.3339885999357563 4.47743256184225 9.2827018600687 2 0 0
34 2 0.155027003492497 4.496372039892805 5.745692969915552 7.564086565939261 1 0 0
35 1 -0.1502072988744206 5.130944260409234 5.4666322321950345 8.412713358427837 1 0 0
36 1 -0.09198769410202329 6.8416677563340915 4.667987041517215 10.635228743091332 1 0 0
37 2 0.1448316128391212 0.5769334876171097 4.364098251884532 11.467240192015389 2 0 0
38 1 -0.05742278304587195 4.6702005341862245 5.69118178328449 9.758272337064087 1 0 0
39 1 -0.06882545580280013 5.56742126028314 5.284316802668239 10.899086411120681 1 0 0
42 1 0.3767818237594468 4.862836058406938 5.620859864246028 12.221505962277382 1 0 0
6 2 0.137404646347238 4.071704225882284 8.581841594125406 6.7562978719688 2 0 0
19 2 0.1402946882721917 2.914114549810025 9.953784175700987 6.824168409906748 2 0 0
22 2 0.1187883427391916 1.007049189089757 9.197789521398992 6.708388235999775 2 0 0
26 1 -0.1510111104362742 0.2869065401428352 7.176996849073556 6.760379712286493 2 0 0
28 2 0.1439375894439646 6.550212030893612 7.379523374910996 7.617277512283012 1 0 0
40 1 0.374014105638402 3.3968423328292703 6.311776634239508 10.343829534098179 1 0 0
41 3 -0.4789303646495207 2.537456246044199 6.816965447590415 9.698515390159331 1 0 0
43 4 -0.4540909664215593 3.4972969252814976 6.256869997782673 11.91088651186971 1 0 0
45 2 0.1728176087444121 0.7580699127745325 6.861611407261329 11.797443017796313 1 0 0
46 1 0.1665635209687922 2.622556837842785 6.964179946434366 12.93028832294755 1 0 0
47 1 -0.1215048462248893 1.2558631041934412 7.273737416376118 12.678690492619676 1 0 0
163 1 -0.1564593806555142 0.37061061226532754 12.410260020921411 7.021589717834833 2 0 0
168 3 -0.5332075421050532 5.644401994606888 11.58652553262864 8.604478152977213 1 0 0
169 2 0.1524350743239856 4.781433503432954 9.471375392948891 9.86475278191031 1 0 0
170 1 0.2604607835436408 4.786609648385191 11.650088218260967 9.654080705800151 1 0 0
171 1 -0.1344409715205133 4.260261295230012 10.388041117157167 10.151440754415766 1 0 0
174 1 -0.08081084175536521 3.1200986693898947 10.263951032472454 10.974906534348014 1 0 0
175 2 0.1619537662145211 2.78788849950814 9.272532500574867 11.288901679512419 1 0 0
177 1 -0.05932913303855879 2.393084861061096 11.43409005306482 11.397957036250512 1 0 0
180 1 0.3996421608836401 1.1006326267038538 11.679356943895616 12.182296618317007 1 0 0
182 3 -0.4749830229415247 0.2946849038340625 10.849019705950429 12.455771519027426 1 0 0
142 2 0.1360023535041272 4.489774894971161 14.439458109185972 7.790159639809742 2 0 0
144 2 0.1075550627081022 0.988234048438395 17.061465830713416 7.121052074295684 2 0 0
149 1 -0.3170898052929144 3.9783835002874985 15.404189962403748 7.9937929837040205 2 0 0
151 2 0.1123378857043569 4.7042360463027695 16.234844007204043 7.8472697167591425 2 0 0
152 1 -0.3204497697609181 2.047111807271259 16.99546047411491 7.453358498417201 2 0 0
153 2 0.1431532534593422 3.6972685228677684 15.424895863907143 9.068181035862281 2 0 0
155 1 0.01141982074037678 2.6878490150578056 15.565120572872686 7.053413568011683 2 0 0
156 2 0.1264032482293642 2.0784018542294143 17.164676990057345 8.548770960542038 2 0 0
157 2 0.1514455497740963 2.609277495007159 17.827515403935262 6.973245782802022 2 0 0
158 1 -0.02087996555459144 1.6948187389814995 14.501023123897292 7.40998244108145 2 0 0
160 2 0.1366788658855901 1.2213499917282065 15.41202902835824 9.3465136457107 2 0 0
162 1 -0.1071368895323653 0.9883047504081454 14.578972238308678 8.683610182983205 2 0 0
164 1 -0.1684455262729181 0.0345554600209102 13.636044599260678 9.11243392793874 2 0 0
166 2 0.1544274648492961 6.495800067486083 13.754313166238633 10.10056062948678 1 0 0
167 1 0.2547951354330313 6.552785591456409 12.511115323843084 8.280537878705907 1 0 0
172 2 0.1371723757474149 4.573063784002133 13.821026598820879 9.925437956748112 1 0 0
173 1 -0.1520241901699416 4.1833331102812785 12.838911467442747 10.182988300077938 1 0 0
176 1 -0.03488564526250815 3.0467485326528543 12.750842657186519 11.054179227418013 1 0 0
178 1 0.3817767319399159 2.252353960516328 13.84488649359337 11.783526481275421 1 0 0
179 3 -0.4669904965650373 2.5870111705005967 14.987434624735036 11.771901172670997 1 0 0
181 4 -0.4495784032940549 1.0054432494160221 13.217408301599782 12.464760559052474 1 0 0
44 3 -0.4535086669892398 5.276116171771912 5.331543062027844 13.302718550466063 1 0 0
48 2 0.2318781002841841 4.164717439941615 7.178389906926789 14.407641972393888 1 0 0
49 1 -0.1445439633924254 3.138780626780945 7.468588713134328 14.161212274416464 1 0 0
50 1 -0.04597433127160104 0.5078737106658293 8.112268041496437 13.558288029717938 1 0 0
51 2 0.1700346433705832 6.367071248645201 8.323584390607246 13.330959756678565 0 0 0
52 1 0.1804628226337197 2.4654936403149934 8.360653470936882 15.071968084255193 1 0 0
53 1 -0.09138271581976355 1.1187220522809636 8.683355123738147 14.711270836421317 1 0 0
54 3 -0.4642791130534049 5.415670155577135 7.961774453357622 16.14719522684391 1 0 0
55 4 -0.4348934339269905 3.1198878752359476 8.88433014626744 16.30286052021096 1 0 0
56 2 0.2099125854342704 0.5309481680222806 9.352435577598861 15.348050237355153 1 0 0
57 1 0.3919867801450555 4.5996508097984234 8.600721562622022 16.73075286916096 1 0 0
58 3 -0.4905033422948221 1.5684110976165453 10.621896506353737 17.198645888149642 1 0 0
59 1 0.3854605875381354 2.5720073728671426 9.992217499870906 17.284720683094005 1 0 0
60 1 -0.05665695814993851 4.866087073233212 9.367492455655116 18.027535681032553 1 0 0
61 1 -0.06507998777709616 3.6623573659680977 10.228016015117678 18.335482236237173 1 0 0
62 2 0.1508989028189334 6.840510795398525 8.724436973235566 18.76109862271562 1 0 0
63 1 -0.07437773957094532 5.985475308422727 9.384137270105034 18.931624208838244 1 0 0
64 1 -0.1486768980722706 3.7146446112228984 11.11530649368961 19.464222090788105 1 0 0
65 2 0.153196822434833 2.8639957650013272 11.76464121003683 19.678736208496723 1 0 0
69 2 0.1603549464513339 6.712352404560637 12.301094821404877 18.98714522586714 1 0 0
71 1 -0.1651948527314269 6.856698137709606 13.064834141703512 19.756511341450363 1 0 0
73 2 0.1194466164173533 1.6490255907851523 13.859260014291875 18.777344509218292 2 0 0
74 2 0.1209275663003769 2.9574780435650294 15.520021112480364 18.33675732421438 2 0 0
75 2 0.1616429165918912 1.1611435428838937 17.332067689587443 19.403854497983275 2 0 0
76 1 -0.1090748474657642 1.0086419284582542 13.96533666415558 19.653476426257964 2 0 0
79 1 -0.3141437365526041 3.468265639012992 15.473907068641394 19.324241499401673 2 0 0
82 2 0.1367045542065385 4.363291156579965 16.124990904043955 19.24524890491733 2 0 0
85 2 0.141766052125938 3.8332231216939436 14.430682133566552 19.46092508042629 2 0 0
86 2 0.1321317855393433 2.792288567171204 17.99523936176596 19.63573903237671 2 0 0
183 2 0.1677402667791885 5.386180154777225 12.550481756635499 13.722220366126283 0 0 0
184 1 0.1754328219802042 0.20602269053924088 13.902041309147105 13.545238995117886 1 0 0
185 1 -0.1216497758803322 5.878382736796273 13.451916551591166 14.101109193553375 0 0 0
186 2 0.2491137141635454 1.6408538636724226 15.488563850136275 13.706907977006253 1 0 0
187 1 -0.1430080248506078 0.6954408350922504 15.123714043260641 14.106335011622463 1 0 0
188 1 -0.08891751993794232 5.231638307816753 14.1796707013552 15.142527360143104 0 0 0
189 2 0.1259272719524591 4.277171561532467 13.811441301053023 15.53761133037583 0 0 0
190 1 0.1749519816475794 0.1204219897075995 15.910457083012153 15.16223949751999 1 0 0
191 1 -0.1239690940454387 5.7995737318728136 15.375906958355223 15.666238514632761 0 0 0
192 3 -0.4259627823731906 2.946106908663808 17.129907956872458 14.327966204431192 1 0 0
193 4 -0.4367568110850822 0.8298221828963486 17.129608587155307 15.656792748008415 1 0 0
194 2 0.1593095939009133 5.264484489034878 15.88656047114566 16.468260981097185 0 0 0
195 1 0.3890977711282002 2.315685052910716 17.516707842054295 15.257160432542797 1 0 0
196 3 -0.53751093463524 6.481943777046478 17.716738488791318 17.69090798153417 0 0 0
197 1 0.3875024827110168 0.5011108435500327 17.897085575741308 16.965632492621804 1 0 0
198 1 -0.05114037686094776 2.828344484907667 18.494704797358466 16.310413702608635 1 0 0
66 1 -0.1656124213461643 5.991114964951295 10.284285606667986 20.02588514121489 1 0 0
67 1 0.2347666659892017 4.896769961649176 11.196135775348585 20.253410111355382 1 0 0
68 2 0.1348842300520207 6.86326817198607 10.304961080661023 20.687717777058722 1 0 0
70 3 -0.5119958651120531 5.001533716655546 12.256773175846575 21.14152002861586 1 0 0
72 1 0.2602657544506579 5.9402912073349325 13.14702217538603 20.89132877593896 1 0 0
77 1 -0.1345884618687005 6.114409566296765 14.269802591526863 21.80981816691262 1 0 0
78 2 0.1675147791187707 5.395598355834086 14.40450689296873 22.619301342197943 1 0 0
80 1 -0.01441119889359856 1.2961822341091271 15.015518966568152 20.632925250677832 2 0 0
81 1 -0.3184981101189446 1.998251263810591 17.392440942418713 20.124120962123502 2 0 0
83 1 -0.1142483864889734 0.28598035601368166 15.146748807828793 21.68097736990609 2 0 0
84 2 0.1108705284937033 1.649748112420434 17.956703264126578 21.014498016299985 2 0 0
87 1 0.01792293375611342 2.511874091136302 15.94686189084142 20.520712444317553 2 0 0
88 2 0.1297311351269783 0.37908387033496643 15.958343381876617 22.409250208580314 2 0 0
89 1 -0.01281093789851102 3.306072516674339 16.099814176209346 21.775743019553854 2 0 0
90 2 0.1360573435955056 2.137925969487471 14.677890218100675 22.971848088061297 2 0 0
91 2 0.1129922799324571 4.744296643260496 17.554004844031812 20.976802676441316 2 0 0
92 1 -0.1107633758962003 2.9624640638768676 15.39122299538222 22.99658594771301 2 0 0
93 1 -0.1228970614722709 4.4324412906058095 17.01218756737585 21.866855035773593 2 0 0
94 1 -0.1708405082385573 3.638154283713216 15.617438623619837 24.214736704335795 2 0 0
95 1 -0.1586970351016527 5.137549307407914 17.21777018546745 23.07317912799395 2 0 0
96 2 0.1279716641769384 3.2990311289705656 15.09281222548573 25.111088668741115 2 0 0
97 2 0.1226412283648282 5.977140076468744 17.912544581697787 23.112643154519574 2 0 0
98 1 0.2401337019622495 4.79323361677147 16.488405046624074 24.277567182718144 2 0 0
99 3 -0.5237970641853552 5.776992383204588 16.388290211436917 25.196753162489994 2 0 0
100 2 0.1399179807906678 0.44134569893468795 15.148263534110434 26.933803575723587 3 0 0
101 1 0.2590306621456731 5.480611022411014 16.207191152599297 26.49669115767089 2 0 0
102 1 -0.1440380859445192 6.407677344542492 15.492245285834978 27.361396061059395 2 0 0
103 2 0.1499204893205996 3.5988701179466935 17.35354360266597 26.458330244161488 2 0 0
104 1 -0.1542948436801008 4.2772197841639565 16.74770168755154 27.061824980922587 2 0 0
105 1 -0.08640711951903315 6.140913565265958 15.20309820950821 28.71462233965523 2 0 0
106 2 0.1466981790466556 6.852924778492638 14.63444125665338 29.324577703383593 2 0 0
107 1 -0.06041928940620133 3.9684363562641227 16.47532714877637 28.426970401280414 2 0 0
108 1 -0.06479086675130469 4.896525558533008 15.643172627789582 29.291322365360422 2 0 0
109 1 0.3762776175537858 2.729621416326464 16.872720427859413 29.244621514013385 2 0 0
110 3 -0.4833651567872332 1.896355740234077 17.637674887282405 28.87834696538605 2 0 0
111 1 0.3738726275154555 4.253424792704378 15.403529870851592 30.651475710260673 2 0 0
112 4 -0.4628547007932982 2.849692005399726 16.14666702802563 30.624366881212293 2 0 0
113 3 -0.4434807718347158 4.718601925579657 14.735117259437873 31.51573379704838 2 0 0
114 1 0.1847930031168226 1.9128688577610373 16.33483862367516 31.76254916235217 2 0 0
115 2 0.2446739894340563 3.0793250435505537 15.2079652720778 33.20619757086795 2 0 0
116 2 0.1795517998738808 0.4546418635609446 17.576147979433316 30.676233946336424 2 0 0
117 1 -0.1271301470566703 2.141985366850501 15.753364601506654 33.05482895110006 2 0 0
118 1 -0.1246181867402396 0.6915848092511495 17.077773115806696 31.617935405331725 2 0 0
120 1 -0.07208582295314836 6.6530996079176425 17.165885278817868 32.67415018953316 1 0 0
121 2 0.1654328918572916 5.716782248832666 17.710717074353763 32.530970384882345 1 0 0
244 2 0.1516591438658894 4.179140796710065 18.248064917616418 30.917256004355277 1 0 0
119 1 0.1981116472169458 1.2564168977363774 15.85842609289886 34.17964766454845 2 0 0
122 3 -0.4603609763363629 6.585013648781562 15.982260259156384 36.978678998896356 1 0 0
123 1 -0.08237745112702569 0.022004899989255592 16.54478635065716 33.92486604608125 2 0 0
124 4 -0.4196734769298314 1.6345504179012462 15.385655190084853 35.53914665150616 2 0 0
125 1 0.3969009078999848 0.748994378270703 15.493313176158582 36.84170966584777 2 0 0
126 3 -0.4379028899307016 3.64340559773807 13.964783995362815 35.123741534576816 2 0 0
127 1 0.3887821905344171 2.8398864346478687 14.433450459169391 35.86635253756928 2 0 0
128 2 0.2228373807945927 6.180885118172574 16.628259500458327 34.71206708394196 1 0 0
129 1 -0.05892994376465124 1.4911468311598042 14.713614693203423 37.93730979111876 2 0 0
130 1 -0.05615684196102734 2.745262158050699 14.098738648352697 37.35136160124221 2 0 0
132 1 -0.1328305177511594 1.191878896964113 14.503130740833543 39.315432133435934 2 0 0
133 1 -0.08727793532713683 3.602810136831304 13.317030051089754 38.20811090809881 2 0 0
134 2 0.136501311805757 4.511821584257643 12.854283129286241 37.8157313303622 2 0 0
136 1 -0.1712541989667317 3.255223885544448 13.125751174248093 39.55736955297545 2 0 0
251 3 -0.4468308158810222 3.951454742970289 18.664317161763208 33.9522773049427 1 0 0
267 1 -0.05058945051593829 1.3824986935585977 18.68340512754464 39.661601792072254 2 0 0
268 1 -0.04312939154107939 1.7715780557886838 18.43441277895735 38.222890300908695 2 0 0
271 1 -0.06335489060718008 2.9648021535711293 17.66727979891649 37.97188289898543 2 0 0
272 2 0.1934419373284168 3.280232663728511 17.475067058376222 36.939772852419395 2 0 0
274 1 -0.1228187309356422 3.706895513033146 17.15119709551921 39.05445825992702 2 0 0
276 2 0.1892109727333104 4.584115969182979 16.53089623393416 38.84026376118048 2 0 0
260 3 -0.472698847448394 6.406430811405672 19.77311420641301 0.973394138837772 1 0 1
278 1 -0.1563827798455802 3.232601578788277 24.81926391269284 3.0746266390834496 2 0 0
279 1 0.2605174019880432 3.5251769060846483 23.47237782869387 2.6091912994634727 2 0 0
284 1 -0.1391224054636855 3.3511061447977983 22.35932547452552 3.5216994746322414 2 0 0
285 2 0.1508791174607727 3.7129589890648234 21.368169748359957 3.231171967540287 2 0 0
286 1 -0.01226248376871103 2.178541064662051 23.876227102117042 5.12397835066778 2 0 0
288 1 -0.1086277512535745 2.657966424929543 22.55558417202868 4.733497858026113 2 0 0
292 2 0.1423602410654195 2.468353483125839 21.704229353477352 5.393707994423284 2 0 0
293 1 0.01716042512890491 1.4061720851764736 23.948048841314993 6.386795930846898 2 0 0
296 1 -0.02122649493025328 0.3050646346618784 22.873681183140935 6.47749750911125 2 0 0
297 2 0.1403768157075689 0.1423189774570581 22.167237136847547 4.381602786406273 2 0 0
299 1 -0.1069936287245573 6.675405967027991 22.039840524015165 5.402857878740027 1 0 0
301 1 -0.1519301339222522 5.697254606605916 21.068932302385257 5.621226913484923 1 0 0
303 2 0.1425475732045572 5.347269880307551 20.458045035922957 4.784588619565924 1 0 0
407 2 0.1663810696239224 1.3686041400551634 24.413387330190126 1.648144271529832 2 0 1
408 1 -0.1523031691874655 1.941475088684023 24.674458272227128 0.7526559851086894 2 0 1
411 1 0.2407875500053298 3.1594093137204893 23.983970032116428 0.42552540144708306 2 0 1
413 3 -0.5060993126251295 3.7749988012611784 23.18143542128503 1.3210815548543653 2 0 1
277 2 0.1532516318255188 3.5053403926860156 25.68717912620927 2.4634727184674294 2 0 0
281 2 0.1119236360926085 2.322424431492456 26.029861375466886 4.6048116758136075 2 0 0
283 1 -0.1197935302444208 2.5617804554058647 25.0107726784487 4.2939339336964535 2 0 0
294 2 0.1258585301994387 0.31769851418693323 25.78780511008663 5.7201541973242644 2 0 0
398 3 -0.4844571435966938 6.393832283266011 26.652948672500084 0.9294736504609661 1 0 1
404 2 0.1798420789309297 4.755223158582593 28.017143298512206 0.09270529409798664 1 0 1
422 1 -0.1493775552068086 1.1801811587151463 30.793153050407632 3.2567649365823104 2 0 0
423 2 0.1384549019490902 1.683359344223811 29.837822959725962 3.119436438915742 2 0 0
426 1 -0.1121975306744001 0.8064619429688776 31.20263305063995 4.5486964072913345 2 0 0
430 2 0.1317538284243176 1.0124452125941403 30.542485322371995 5.400337312496204 2 0 0
435 2 0.131236174841389 5.067890724721784 31.079038348895743 4.531776261016001 1 0 0
437 1 -0.1119907838663013 4.982317134986286 30.814381070796514 5.588343627709255 1 0 0
439 1 -0.1505188705739132 4.188839564316204 29.714242134866772 5.963668291487389 1 0 0
441 2 0.1296832622289533 3.663417865332374 29.13438822033577 5.200050797495017 1 0 0
551 3 -0.5086216231535057 0.6970879297412869 30.968855571039263 0.9152087586117764 2 0 1
415 2 0.1561488824250326 0.18973614110512751 33.613148296797725 1.445375572565199 2 0 0
416 1 -0.1444437313362309 0.3359439876128173 32.94658479476509 2.300271033086578 2 0 0
417 1 0.2653775730757952 0.8125137120035204 31.5859715080239 2.092531343582261 2 0 0
418 2 0.1256304927709867 1.3506680394988633 33.99860033859416 6.626294214053984 2 0 0
419 2 0.122973404394746 6.47243588495213 34.3708601588486 3.7097810358929806 1 0 0
421 1 -0.1150922454417944 6.892124883936189 33.37013213187712 3.592215609911137 1 0 0
424 1 -0.009411122007472732 0.11790424440128237 32.4740037320461 4.733504843516887 2 0 0
428 1 -0.3173543283154637 5.403827900658568 34.00409023098176 5.937055953167926 1 0 0
431 1 0.01387543738118137 6.4438009580059274 32.781841884800365 6.064971636357348 1 0 0
432 2 0.1292782143541715 5.900888493225916 34.963232844870234 5.67483760117677 1 0 0
433 2 0.1303679450072107 4.626081886702915 33.80489631361447 5.160196619206927 1 0 0
434 1 -0.01197493084371066 5.674283523700939 31.613730568724936 6.591610364733792 1 0 0
536 3 -0.4838579148669547 2.9318862561781125 33.937425926845954 0.87190754465152 1 0 1
542 2 0.1655968058673401 1.3952863374238311 35.761727631332775 0.2709658159718347 1 0 1
545 2 0.1553199266511186 5.131797842418575 31.983434382665518 1.5265777549981823 1 0 1
546 1 -0.1582790269525769 5.491881151377126 32.1307498142026 0.5038046704304635 1 0 1
549 1 0.2506919795806517 6.699600779498335 31.50202823243625 0.05034063449828761 1 0 1
686 2 0.1290351225703917 6.900244933144074 37.117904164284916 1.6866867652550819 1 0 1
688 1 -0.1301024589681619 0.5885816879974994 37.35614892128313 3.7567292379811335 2 0 1
690 2 0.1678981901289182 1.562364371760069 36.87958361554445 3.5985596179160755 2 0 1
280 2 0.1258772227197922 3.3487239467075702 24.329891318246393 7.485723721671244 2 0 0
287 1 -0.3112092280575378 2.4442279354574556 23.700386043521103 7.597607302553171 2 0 0
289 2 0.1270784302391139 2.003556880041352 23.935892893403693 8.592191409216799 2 0 0
291 2 0.1488488810325178 2.796310716334332 22.648906193198158 7.588806382321361 2 0 0
298 2 0.1321700257707163 0.08526576525445995 23.239020105274268 8.660805561619647 2 0 0
300 1 -0.1124725100430194 6.646963387675298 22.651631901472427 7.80565985717499 1 0 0
302 1 -0.162140567937215 5.661101251910192 21.699809492332584 8.047653441680575 1 0 0
304 2 0.1718578738159208 5.2848835274949755 21.58528284829159 9.064369109066067 1 0 0
305 1 0.249039740650573 5.1228702095196885 20.879812086931572 6.954208813981535 1 0 0
306 3 -0.5349993412311044 4.072660324817341 20.11404867376114 7.151314561390681 1 0 0
307 2 0.1316591082670065 5.698446723526096 19.13788469680404 8.992814865818596 1 0 0
308 1 0.2143815107924014 3.74077096647403 19.962053773850016 8.49939048563199 1 0 0
309 1 -0.1676234019846014 4.761678921742231 19.514184109490213 9.410529359974147 1 0 0
310 2 0.1470575903863203 1.6763683185791696 20.688414022522533 8.335119143285908 1 0 0
311 1 -0.1559454704550358 2.490583774334012 20.403779129090417 9.00942572037652 1 0 0
312 1 -0.06798920404979863 4.645310942886209 19.60817928723154 10.829096386910225 1 0 0
313 2 0.1704688058496895 5.470011271232184 19.310647298337386 11.485939991278375 1 0 0
314 1 -0.05422266836374 2.309842587422222 20.51365565264975 10.434478539348627 1 0 0
315 1 -0.0564838707588359 3.419470237897901 20.12136187707926 11.383193565356073 1 0 0
316 1 0.392963347298145 1.1384987967798226 21.025381123450025 11.270550545199391 1 0 0
317 3 -0.5243335174816606 0.183602907181088 21.561667541699457 10.808964222958592 1 0 0
318 1 0.4054641201386666 2.9792403922663335 20.361604518715815 12.830118722261492 1 0 0
319 4 -0.4279386221062715 1.514666541816804 20.911859853612604 12.79178688836519 1 0 0
321 2 0.1908777105460947 6.027926591800594 22.21138245467092 12.624317943692848 0 0 0
282 2 0.1338402733955787 1.44989003595004 26.106398602952183 7.068348872149759 2 0 0
290 1 -0.3153352899482926 0.7390784698373528 25.358723013284887 6.651770900677372 2 0 0
295 2 0.1170761895935094 6.8078118547630915 25.26889888161779 7.375989439792703 1 0 0
440 1 -0.1630325604041571 4.728695895775093 30.154837873800762 8.370356327243803 1 0 0
442 2 0.164533284259075 4.637935230547905 29.899082245688966 9.4300478643754 1 0 0
443 1 0.2540118144913186 4.012940268687107 29.38100006796219 7.370203345914365 1 0 0
444 3 -0.5384290802372467 3.010988153454363 28.522916641955884 7.579008300809018 1 0 0
445 2 0.1353164575947088 4.892327865208167 27.211949532827408 9.056212943060325 1 0 0
446 1 0.2393418856785868 2.822277123761745 27.937452255755563 8.792473990826355 1 0 0
447 1 -0.157511736014491 3.894332130514867 27.269019954966364 9.500583666999935 1 0 0
448 2 0.1551777101736928 0.6966989580280998 28.496617008426448 8.76603618010473 1 0 0
449 1 -0.1441953287625863 1.4930848136813433 27.99324638732319 9.320561640969784 1 0 0
450 1 -0.07516762547543379 3.668927447002888 26.67215970707705 10.758281097929476 1 0 0
451 2 0.1470043193488523 4.478803334204715 26.152300564072917 11.273240378792503 1 0 0
452 1 -0.0553776527083516 1.2536985406210626 27.493985958939568 10.640660768255971 1 0 0
453 1 -0.0695115002970166 2.3683375729318086 26.765601073201662 11.369739619402376 1 0 0
454 1 0.3808937700774248 0.05466887748868506 27.595743675393333 11.589735033840194 1 0 0
455 3 -0.4767794777771446 6.075243580086799 28.374604113178815 11.445073654724792 0 0 0
456 1 0.3831176210664446 1.8331351169019758 26.257369789819933 12.70602415520072 1 0 0
457 4 -0.4384967202186237 0.3454617678989663 26.71869726117867 12.844336209135516 1 0 0
420 2 0.1166298847166855 4.865143097455422 34.165850840075414 6.892943035736659 1 0 0
425 1 -0.3169186451125531 0.7198838013895328 33.19532823481091 7.064950904794747 2 0 0
427 2 0.1084101647697397 0.32563988740425465 33.57783461785929 8.02849197635157 2 0 0
429 2 0.1310280862575052 1.392247240596313 32.333080418152605 7.290387203868843 2 0 0
436 2 0.1140887372598923 6.052148659472755 31.83401429148775 8.751885169384568 1 0 0
438 1 -0.1173891620241019 5.529351123357096 31.247758790864964 7.98998795191534 1 0 0
560 1 -0.1534665001480037 0.7919623341579016 37.31135113726862 8.419295940840223 2 0 0
561 2 0.1258395062851421 0.9967966597899732 36.240185859065846 8.328668138575637 2 0 0
568 2 0.145644754237899 0.3398826127915877 37.21160830236031 10.535541103023057 2 0 0
577 1 -0.1499912867633603 3.572003667328202 36.96363895344592 10.520129746172728 1 0 0
578 1 -0.1624513068146338 3.768639907435818 37.28262254326326 12.96811739624038 1 0 0
579 2 0.1343816916615416 3.1228789022598593 36.50892046616044 9.63551656325041 1 0 0
581 1 0.2516309096219388 3.110932349757508 36.60433802446691 11.859533377151454 1 0 0
582 3 -0.5341187547642352 2.2028835693194906 35.635203400000925 11.997953872503137 1 0 0
583 2 0.1440274416544549 1.0816334367160496 33.38395587520814 12.86103529934426 1 0 0
584 1 0.2535799681083702 1.4638806206618167 35.52441614311351 13.13212803629428 1 0 0
199 1 -0.07717893985689232 1.7055873024671544 18.79774753607147 17.278321110046356 1 0 0
200 2 0.1971076304016929 4.9298945906585585 18.90996751905641 15.801251630521808 1 0 0
201 1 -0.04388211584542198 4.109276012149208 19.128282855855378 16.494096618817558 1 0 0
202 1 -0.1419156325559782 1.9192849966525498 19.776521542153226 18.300656847671696 1 0 0
203 2 0.1639244375039607 1.113566101222334 20.038279486340212 18.990588194231336 1 0 0
204 1 -0.1528053283341143 4.295691511810355 20.037654362713354 17.558246169128523 1 0 0
205 1 0.2460239451897883 3.2154781110506443 20.359829848561812 18.465533209466958 1 0 0
206 2 0.1729285536988274 5.2682222775961565 20.526303121459442 17.682058065797765 1 0 0
208 3 -0.498613894031958 3.3269581958274204 21.251677279432144 19.492080120326847 1 0 0
216 2 0.1357604035624681 5.113324882265842 19.17827539706245 19.815169847312234 1 0 0
320 3 -0.4457713419986561 3.651630115582617 20.165045748287383 13.790890874063138 1 0 0
322 1 0.1832468673295103 0.8752647406576506 21.754439614498242 13.849324944180433 1 0 0
323 1 -0.111472358066349 6.530765288498965 22.386628264608515 13.577284828761286 0 0 0
324 2 0.2095436663420364 2.3693141995717513 21.541469747245603 15.41028583790377 1 0 0
325 1 -0.137622453688345 1.4376000681503365 22.05044988820719 15.141348021442546 1 0 0
326 1 -0.07728428508516275 5.915015748941919 23.26695195495829 14.510651434766544 0 0 0
327 2 0.1754255698269437 4.9714293351120205 23.759270080956245 14.260163253005212 0 0 0
328 1 0.1736134818659299 0.8845666707378008 22.9384807862269 16.1061339849083 1 0 0
329 1 -0.09983080213031502 6.549129642611738 23.522330424532388 15.765286139452861 0 0 0
330 3 -0.4524732392214246 3.4953214008548934 24.584284308349268 16.5021578611444 1 0 0