ITEM: TIMESTEP
0
ITEM: NUMBER OF ATOMS
276
ITEM: BOX BOUNDS xy xz yz pp pp pp
1.8694536506024981e+00 1.0130546349398081e+01 0.0000000000000000e+00
4.6670323352825553e+00 1.3332967664716261e+01 0.0000000000000000e+00
2.3370666908637290e+00 4.4960854309132927e+01 0.0000000000000000e+00
ITEM: ATOMS id q xu yu zu
1 0.160936 3.98643 -0.00186482 2.38738
2 -0.168117 4.12773 -0.697817 3.171
3 0.24209 4.33116 -2.11378 2.78728
4 0.158713 5.69965 -1.24816 8.88507
5 0.113048 4.05247 0.859399 4.6778
6 0.154119 6.00318 0.926555 8.02929
7 -0.124469 4.21934 -0.179704 4.49428
8 -0.151062 4.71191 -3.00233 3.87176
9 0.140976 4.87773 -4.11218 3.65068
10 -0.0191395 4.51858 -1.12249 5.53612
11 -0.28181 5.35724 -1.66848 7.81506
12 -0.138264 4.74767 -2.51701 5.2016
13 0.132732 4.7577 -2.62127 7.93795
14 -0.296417 5.71808 0.608816 6.95095
15 0.13798 6.23197 -2.18185 7.36385
16 0.106105 4.88781 -3.26535 5.97416
17 0.015764 4.67277 -0.561608 6.90788
18 0.131433 6.65329 0.374453 6.36351
19 0.112298 5.33828 1.52582 6.5141
20 -0.0139954 3.40664 -0.0924078 7.53005
21 0.110637 2.09218 -1.46339 6.46392
22 0.1155 4.23335 1.5673 8.78356
23 -0.124045 2.14487 -0.736365 7.24992
24 -0.110819 3.32372 1.00424 8.51281
25 -0.152976 0.946416 -0.445927 7.98969
26 -0.160947 2.13173 1.36904 9.14029
27 0.139248 0.0603922 -1.03898 7.78716
28 0.144297 2.13491 2.2344 9.83264
29 0.262204 0.902463 0.666292 8.89201
30 -0.520226 -0.239738 0.914748 9.57107
31 0.176007 1.90318 0.8721 11.5545
32 0.257771 -0.182548 1.27951 10.8821
33 -0.154121 0.989162 1.4317 11.7392
34 0.167562 -2.34868 1.65594 10.8065
35 -0.104778 -1.42322 1.77536 11.4044
36 -0.0628062 1.05475 2.29212 12.8644
37 0.172699 1.98804 2.42369 13.4289
38 -0.0302749 -1.40383 2.60966 12.5744
39 -0.0471076 -0.117845 3.05118 13.2257
40 0.386151 -2.51004 3.31493 13.3373
41 -0.463912 -3.68902 3.37273 13.0153
42 0.404664 -0.394619 4.02861 14.3924
43 -0.410271 -1.95291 4.07634 14.5804
44 -0.46482 0.380331 4.36077 15.2134
45 0.19468 -4.65411 4.23306 15.0151
46 0.188657 -2.66622 4.96648 15.5525
47 -0.100634 -4.10693 4.89027 15.6618
48 0.233135 -0.978076 6.08309 16.4479
49 -0.120158 -2.06203 5.81468 16.564
50 -0.0856892 -4.91873 5.69781 16.5497
51 0.17991 -6.07804 5.61975 16.4947
52 0.177925 -2.83394 6.64481 17.4442
53 -0.103012 -4.2094 6.53498 17.4282
54 -0.492759 -4.07121 8.37745 19.6518
55 -0.416759 -2.13293 7.73673 18.2863
56 0.212335 -4.84249 7.16373 18.0496
57 0.413358 -2.90279 8.41273 19.4294
58 -0.451548 0.347751 7.56215 17.9649
59 0.407692 -0.616435 7.92509 18.5863
60 -0.048468 -1.87978 9.14568 20.2816
61 -0.0102216 -0.511981 8.88276 19.7939
62 0.166988 -3.16898 10.175 21.7007
63 -0.0690373 -2.13328 10.036 21.4208
64 -0.123705 0.58889 9.58411 20.4433
65 0.18153 1.5983 9.54325 20.0621
66 -0.138691 -1.04941 10.605 22.087
67 0.26834 0.314726 10.4583 21.5754
68 0.12827 -1.18046 11.2387 22.9745
69 0.177348 2.35771 8.56875 21.9572
70 -0.52007 1.2538 11.2468 22.1338
71 -0.155899 2.78208 9.27146 22.6384
72 0.257853 2.30869 10.6538 22.6963
73 0.126903 3.83891 7.61193 23.6509
74 0.116873 4.69344 6.62578 25.1579
75 0.118465 7.23046 9.04549 26.4792
76 -0.104408 3.63113 8.68441 23.6339
77 -0.140963 2.98141 11.4534 23.6764
78 0.145811 2.72151 12.5695 23.7449
79 -0.30242 5.57409 7.344 25.1888
80 -0.0213995 4.29312 9.47754 24.5898
81 -0.314173 6.61485 9.50804 25.6902
82 0.143057 5.96958 7.38195 24.1303
83 -0.130691 3.92709 10.9294 24.558
84 0.132415 7.17116 9.40738 24.7101
85 0.128946 6.32104 6.75938 25.7867
86 0.108885 6.43221 10.5691 25.8957
87 0.0231157 5.21018 8.82562 25.6688
88 0.0996948 4.40985 11.6194 25.3117
89 -0.0118958 4.57077 8.79006 27.0142
90 0.120367 6.18317 7.59367 27.9293
91 0.115985 2.7504 9.9453 26.5916
92 -0.111654 5.24844 8.08102 28.1105
93 -0.131775 3.31092 9.4703 27.3469
94 -0.164982 4.71659 7.94709 29.3933
95 -0.153527 2.81878 9.44261 28.6511
96 0.139905 5.19233 7.34388 30.1713
97 0.131372 1.88756 9.96571 28.8272
98 0.281533 3.45913 8.65244 29.7171
99 -0.515998 2.84486 8.65621 30.8426
100 0.138633 5.32064 8.16716 32.1353
101 0.232697 3.20921 7.79475 31.9358
102 -0.156199 4.4891 7.60221 32.5247
103 0.155054 1.10234 7.11648 32.16
104 -0.124203 2.1416 7.02517 32.529
105 -0.0682414 4.79318 6.64381 33.5258
106 0.17172 5.8551 6.5963 33.9212
107 -0.030299 2.35555 6.28205 33.7299
108 -0.0403215 3.71708 5.95907 34.258
109 0.392393 1.30926 5.59263 34.6549
110 -0.47816 0.157566 5.61502 34.3464
111 0.410081 3.69079 5.07178 35.4942
112 -0.410071 2.19671 4.89763 35.8129
113 -0.428377 4.58827 4.62221 36.1382
114 0.196182 1.55069 4.02494 36.8515
115 0.235929 3.26943 2.90802 37.4178
116 0.202674 -0.48275 4.90456 36.6664
117 -0.135571 2.24478 3.0575 37.6651
118 -0.101597 0.15916 4.14425 37.1157
119 0.190631 1.71387 2.3065 38.7263
120 -0.0751253 -0.480427 3.36388 38.1305
121 0.192003 -1.57539 3.46993 38.4765
122 -0.492908 0.765518 0.443308 41.1832
123 -0.108043 0.289285 2.45781 38.881
124 -0.429457 2.4758 1.47008 39.7373
125 0.400292 1.92708 0.648421 40.8996
126 -0.449451 4.93461 1.70637 39.1296
127 0.393465 4.04786 1.31035 39.8127
128 0.190617 -0.244707 1.97059 39.6707
129 -0.0387637 3.05331 -0.108701 41.6151
130 -0.033163 4.33408 0.280655 40.9196
131 0.161548 2.20038 -1.23294 43.2899
132 -0.126996 3.10575 -1.0258 42.7421
133 -0.0500743 5.57954 -0.255834 41.4411
134 0.188353 6.49393 0.0565171 40.9702
135 0.240442 4.33054 -1.51783 43.1927
136 -0.121539 5.55882 -1.21445 42.4881
137 -0.505745 4.3515 -2.53062 44.1564
138 0.153561 6.50847 -1.72662 42.7502
139 0.173125 6.34925 4.58053 1.37701
140 -0.145285 6.92642 3.86509 2.0587
141 0.24524 6.56953 2.42906 1.95376
142 0.130905 11.262 2.98181 4.0106
143 0.124795 8.03472 5.41339 2.98261
144 0.14627 10.2012 5.53815 3.34943
145 -0.115221 7.81609 4.39376 3.01091
146 -0.157672 7.17081 1.52213 2.8978
147 0.141268 6.80418 0.483448 2.93252
148 -0.00791838 8.50747 3.43417 3.87335
149 -0.301651 10.7916 3.19552 5.03488
150 -0.117343 8.13748 2.02652 3.80719
151 0.107405 11.6384 3.79002 5.56147
152 -0.308199 10.0016 5.46784 4.4464
153 0.127205 10.5946 2.24183 5.55496
154 0.111215 8.55324 1.24796 4.50955
155 0.019747 9.44114 4.03184 4.88423
156 0.120196 9.22708 6.20262 4.66275
157 0.132303 10.9002 5.74613 5.06745
158 -0.0143185 8.68995 4.15543 6.20837
159 0.122447 6.89079 3.09679 5.64551
160 0.108521 10.2586 5.31061 7.35995
161 -0.108522 7.34506 3.68229 6.45223
162 -0.109154 9.22651 4.89673 7.39019
163 -0.164628 6.61602 3.81209 7.64049
164 -0.168912 8.51373 5.08212 8.56661
165 0.123449 5.66461 3.34887 7.71617
166 0.134679 9.01058 5.68491 9.32919
167 0.286736 7.14784 4.55658 8.7835
168 -0.535089 6.3287 4.89601 9.71406
169 0.141486 8.78647 5.22058 11.1635
170 0.244879 6.61284 5.60714 10.9019
171 -0.152914 7.90585 5.78715 11.5272
172 0.168179 4.42277 6.01604 11.0161
173 -0.111207 5.43245 6.16432 11.4651
174 -0.0612788 8.03677 6.63869 12.685
175 0.17776 9.03843 6.72314 13.2085
176 -0.0455227 5.51423 7.05021 12.6181
177 -0.0365433 6.86578 7.30725 13.1839
178 0.40756 4.43471 7.83877 13.4011
179 -0.496181 3.29838 7.88442 12.9893
180 0.402906 6.70215 8.28172 14.3873
181 -0.423124 5.11872 8.50075 14.5916
182 -0.444359 7.612 8.79858 14.9092
183 0.20014 2.35263 8.98957 14.9542
184 0.186811 4.40814 9.4853 15.4622
185 -0.12599 2.98024 9.57855 15.6322
186 0.249096 6.30611 10.4403 16.0335
187 -0.116776 5.19353 10.3633 16.2888
188 -0.0625082 2.48732 10.2097 16.7767
189 0.222182 1.4195 10.0808 17.0822
190 0.192664 4.75225 11.0835 17.4846
191 -0.124364 3.37309 10.9143 17.6956
192 -0.4542 7.96113 11.3364 17.6721
193 -0.429025 5.62379 11.9137 18.3371
194 0.1817 2.98349 11.3501 18.5707
195 0.412961 7.19639 11.8956 18.3844
196 -0.495751 4.15084 12.9839 20.134
197 0.406198 5.15947 12.8384 19.5648
198 -0.0372962 7.73727 12.9441 19.2854
199 -0.0425583 6.49034 13.3752 20.0701
200 0.167755 9.95004 13.1047 19.0055
201 -0.0451663 9.05439 13.4671 19.6203
202 -0.139814 6.6959 14.3686 21.0965
203 0.161373 5.94479 14.7454 21.7349
204 -0.106578 9.18669 14.3871 20.6793
205 0.229816 8.02597 14.8322 21.3777
206 0.178455 10.2552 14.7245 20.8887
207 0.138504 9.31023 17.2706 24.5809
208 -0.509695 8.3031 15.7523 22.4151
209 -0.158617 9.17297 16.2091 24.6265
210 0.260089 8.72683 15.3309 23.5767
211 0.110821 9.36064 16.3523 26.8315
212 0.10508 9.6375 11.7137 26.9024
213 0.148434 11.0933 15.1614 27.812
214 -0.125659 9.22001 15.7074 25.9477
215 -0.159877 8.55591 13.9101 23.8988
216 0.162995 8.27627 13.1791 23.1001
217 -0.298523 10.1643 12.535 27.452
218 -0.0157112 9.02397 14.2939 26.275
219 -0.304534 10.1898 14.9256 28.4731
220 0.125081 11.0621 12.756 26.8511
221 -0.126705 8.80495 13.3651 25.1617
222 0.131046 9.54847 15.7846 28.6473
223 0.142317 10.5239 12.0035 28.3513
224 0.167105 10.601 14.4303 29.3675
225 0.0134397 9.28524 13.8241 27.6724
226 0.0996582 8.63942 12.2536 25.2831
227 -0.0127549 8.02592 13.5393 28.4469
228 0.0994387 7.05752 12.2622 26.9674
229 0.12371 8.58946 14.657 30.2108
230 -0.124762 6.94833 12.7046 27.9629
231 -0.114599 7.79491 14.076 29.7678
232 -0.152468 5.81058 12.3183 28.7424
233 -0.173202 6.617 13.7626 30.5356
234 0.140113 5.11563 11.6315 28.3041
235 0.146543 6.47018 14.2041 31.5129
236 0.237365 5.60885 12.9081 30.021
237 -0.507616 4.38563 12.6436 30.626
238 0.149937 6.68252 11.7158 31.6058
239 0.270425 4.53008 11.9259 31.7139
240 -0.159233 5.83798 11.441 32.2292
241 0.179665 2.39262 11.6619 31.8826
242 -0.101339 3.3585 11.4466 32.4136
243 -0.0661607 5.99387 10.8213 33.4712
244 0.188211 6.99021 10.5967 33.8074
245 -0.0281394 3.49027 10.7446 33.6208
246 -0.031881 4.81879 10.4254 34.2406
247 0.428766 2.40193 10.0663 34.5135
248 -0.484478 1.24894 10.2608 34.4741
249 0.411612 4.75564 9.579 35.5216
250 -0.43194 3.14774 9.27841 35.6185
251 -0.45789 5.67408 9.25457 36.1562
252 0.186396 2.48339 8.49725 36.6719
253 0.243223 4.34243 7.9678 37.6882
254 0.220731 0.465132 8.9713 35.9963
255 -0.120462 3.23641 7.71247 37.6619
256 -0.0995898 1.04193 8.35288 36.6605
257 0.191166 2.59197 6.90349 38.5902
258 -0.0770082 0.362771 7.55756 37.6527
259 0.200978 -0.715299 7.5649 37.7626
260 -0.486097 1.71987 4.70747 40.7527
261 -0.103112 1.16633 6.80208 38.5134
262 -0.419694 3.40359 5.93394 39.4358
263 0.409207 2.85312 4.87249 40.4543
264 -0.483843 5.83935 6.45537 39.035
265 0.418605 4.95127 5.8123 39.5161
266 0.191901 0.658414 6.18513 39.2808
267 -0.0245833 4.02733 4.19535 41.1963
268 -0.0483208 5.24435 4.76719 40.5507
269 0.17754 3.16324 2.91702 42.7721
270 -0.112079 4.06633 3.22789 42.2848
271 -0.0867912 6.56102 4.27728 40.9609
272 0.168871 7.44033 4.57453 40.3928
273 0.256508 5.3661 2.75766 42.6704
274 -0.149355 6.55359 3.21768 41.9257
275 -0.50698 5.51768 2.05909 43.8309
276 0.170517 7.52739 2.79675 42.1316
ITEM: TIMESTEP
20
ITEM: NUMBER OF ATOMS
276
ITEM: BOX BOUNDS xy xz yz pp pp pp
1.8694536506024981e+00 1.0130546349398081e+01 0.0000000000000000e+00
4.6670323352825553e+00 1.3332967664716261e+01 0.0000000000000000e+00
2.3370666908637290e+00 4.4960854309132927e+01 0.0000000000000000e+00
ITEM: ATOMS id q xu yu zu
1 0.16128 3.95381 0.0261473 2.35607
2 -0.167967 4.14936 -0.68926 3.14731
3 0.251192 4.37776 -2.08436 2.79382
4 0.162295 5.67144 -1.28328 8.83653
5 0.111381 4.06062 0.854057 4.67348
6 0.157297 6.01795 0.901008 7.99212
7 -0.120283 4.21641 -0.21225 4.46818
8 -0.157384 4.68261 -3.00996 3.8788
9 0.144019 4.86995 -4.06888 3.66307
10 -0.0218234 4.5322 -1.12957 5.55246
11 -0.294339 5.3668 -1.70078 7.84865
12 -0.13808 4.73133 -2.53162 5.19685
13 0.1355 4.71498 -2.58597 7.97917
14 -0.30254 5.73818 0.632177 6.9489
15 0.138338 6.26378 -2.13391 7.35839
16 0.107739 4.92722 -3.26125 5.97968
17 0.00838872 4.67466 -0.575919 6.92938
18 0.133058 6.65656 0.37078 6.38201
19 0.112627 5.31781 1.54482 6.48942
20 -0.01375 3.40184 -0.0862931 7.54981
21 0.109514 2.1013 -1.49421 6.47705
22 0.11769 4.23702 1.56068 8.77531
23 -0.121869 2.13099 -0.726821 7.24638
24 -0.112645 3.33769 1.00255 8.51468
25 -0.152547 0.947712 -0.429656 7.95496
26 -0.162708 2.13725 1.38886 9.14155
27 0.137446 0.0488517 -1.02241 7.77158
28 0.145985 2.14056 2.23673 9.82832
29 0.261861 0.914587 0.637896 8.93505
30 -0.524034 -0.223261 0.888225 9.61606
31 0.174923 1.89951 0.872301 11.5205
32 0.266528 -0.186722 1.29459 10.8949
33 -0.154236 0.990396 1.43589 11.7416
34 0.169917 -2.3489 1.64611 10.8442
35 -0.106958 -1.42211 1.8254 11.3951
36 -0.0635605 1.05131 2.30654 12.8464
37 0.173188 1.9811 2.41641 13.4157
38 -0.0296117 -1.4194 2.6492 12.5677
39 -0.0487961 -0.131544 3.01689 13.2621
40 0.405676 -2.55364 3.34033 13.3422
41 -0.48081 -3.68643 3.34654 12.9952
42 0.408978 -0.398656 3.95566 14.4281
43 -0.424848 -1.94263 4.12339 14.5683
44 -0.464438 0.418636 4.38269 15.1872
45 0.194201 -4.65437 4.21967 14.9917
46 0.194192 -2.68426 4.94272 15.5742
47 -0.103401 -4.11074 4.88622 15.6462
48 0.235497 -0.998935 6.02538 16.4589
49 -0.130006 -2.08049 5.85758 16.4958
50 -0.08522 -4.90933 5.67667 16.5279
51 0.182232 -6.00904 5.62049 16.5095
52 0.189986 -2.79715 6.68013 17.4292
53 -0.10268 -4.22984 6.54753 17.4193
54 -0.492552 -4.0817 8.38339 19.6676
55 -0.418276 -2.14782 7.69697 18.2983
56 0.213198 -4.84615 7.16492 18.0703
57 0.412378 -2.91641 8.41713 19.4258
58 -0.454993 0.340688 7.54969 17.9723
59 0.413983 -0.589844 7.96079 18.5768
60 -0.0414907 -1.8894 9.15742 20.2947
61 -0.0151636 -0.492062 8.89176 19.7822
62 0.164919 -3.16771 10.1954 21.7417
63 -0.0688661 -2.13733 10.0217 21.4183
64 -0.122362 0.576228 9.59573 20.4319
65 0.1817 1.59621 9.51875 20.056
66 -0.137966 -1.03678 10.6172 22.0754
67 0.267399 0.303133 10.4251 21.5601
68 0.128983 -1.19948 11.2401 22.9592
69 0.177369 2.33237 8.56765 21.9286
70 -0.517133 1.27328 11.1972 22.1424
71 -0.154895 2.74366 9.24376 22.6688
72 0.261539 2.33841 10.6432 22.7096
73 0.127252 3.81763 7.62462 23.5969
74 0.121469 4.67941 6.64192 25.1652
75 0.116781 7.24245 9.06826 26.4797
76 -0.104087 3.62511 8.70209 23.6118
77 -0.149343 3.01518 11.4834 23.6964
78 0.147479 2.74911 12.542 23.7477
79 -0.309252 5.56013 7.3155 25.1604
80 -0.022243 4.28794 9.51158 24.6303
81 -0.311827 6.59374 9.51156 25.6935
82 0.146291 5.97755 7.35654 24.1305
83 -0.133208 3.94419 10.9309 24.5838
84 0.13354 7.14384 9.41412 24.7273
85 0.131974 6.32146 6.80555 25.7969
86 0.107189 6.46666 10.589 25.9013
87 0.0227546 5.19403 8.80158 25.656
88 0.103497 4.4064 11.6061 25.3038
89 -0.0112098 4.59189 8.78593 27.0217
90 0.118457 6.19737 7.57179 27.9206
91 0.114417 2.76333 9.96593 26.5702
92 -0.111904 5.24739 8.07263 28.1115
93 -0.124964 3.33059 9.44058 27.3452
94 -0.163022 4.69206 7.96428 29.398
95 -0.158329 2.81488 9.42555 28.6493
96 0.139615 5.19798 7.35832 30.151
97 0.131088 1.88083 9.9535 28.8529
98 0.270743 3.46123 8.6697 29.7209
99 -0.517774 2.84838 8.62765 30.8823
100 0.138339 5.32569 8.1748 32.1201
101 0.247124 3.19456 7.76236 31.9236
102 -0.156088 4.49746 7.58178 32.5091
103 0.154718 1.11428 7.14038 32.1555
104 -0.12761 2.12877 7.05437 32.5423
105 -0.0688858 4.79689 6.68482 33.5741
106 0.173081 5.82892 6.57914 33.9163
107 -0.0412135 2.3664 6.25504 33.725
108 -0.0350412 3.75371 5.97806 34.2564
109 0.402379 1.33635 5.58466 34.6373
110 -0.47904 0.172919 5.59443 34.3943
111 0.403309 3.66404 5.07814 35.4895
112 -0.412883 2.14114 4.88025 35.7963
113 -0.42808 4.58512 4.64293 36.1039
114 0.198204 1.53288 4.02095 36.8558
115 0.237019 3.29906 2.91488 37.426
116 0.206538 -0.471295 4.8981 36.628
117 -0.131565 2.24125 3.06438 37.6572
118 -0.104587 0.136999 4.15732 37.1499
119 0.195516 1.71453 2.29083 38.7459
120 -0.079785 -0.489249 3.37216 38.1591
121 0.196113 -1.55265 3.48711 38.3977
122 -0.503769 0.767278 0.457084 41.1866
123 -0.106432 0.298714 2.45726 38.914
124 -0.42699 2.50067 1.48673 39.7219
125 0.4053 1.90693 0.617527 40.8915
126 -0.446208 4.90953 1.73586 39.1136
127 0.399158 4.05029 1.27939 39.7947
128 0.193021 -0.238259 1.92576 39.6908
129 -0.039597 3.04734 -0.0976186 41.6145
130 -0.0361072 4.33718 0.299997 40.9446
131 0.160607 2.18364 -1.24655 43.281
132 -0.129007 3.10379 -0.98938 42.7492
133 -0.0473866 5.57378 -0.258562 41.428
134 0.186586 6.51498 0.0362779 40.9579
135 0.241984 4.33375 -1.55745 43.16
136 -0.127003 5.55303 -1.21675 42.4817
137 -0.510494 4.36225 -2.52311 44.1797
138 0.152887 6.49377 -1.6971 42.7738
139 0.173502 6.38609 4.57331 1.38473
140 -0.154619 6.89071 3.86559 2.03939
141 0.248013 6.53451 2.46022 1.97263
142 0.133499 11.2389 2.97108 4.02642
143 0.1215 8.03059 5.41484 3.00456
144 0.146365 10.2179 5.51913 3.37094
145 -0.108414 7.8344 4.33953 2.97178
146 -0.155743 7.15789 1.54718 2.91213
147 0.140963 6.84889 0.495381 2.92644
148 -0.0101168 8.51641 3.42674 3.87897
149 -0.309417 10.7966 3.18922 5.02391
150 -0.120052 8.12973 2.0234 3.81278
151 0.111671 11.5873 3.75444 5.56997
152 -0.30848 9.9622 5.45291 4.45519
153 0.126507 10.6143 2.23595 5.5592
154 0.114294 8.56478 1.29653 4.50344
155 0.0220316 9.43821 4.03546 4.88129
156 0.117833 9.21052 6.23808 4.66263
157 0.132893 10.868 5.74114 5.03349
158 -0.0120623 8.70579 4.17656 6.23251
159 0.122441 6.87848 3.10201 5.63795
160 0.109452 10.2496 5.29985 7.34296
161 -0.110427 7.35878 3.6542 6.45023
162 -0.111407 9.24277 4.88389 7.39023
163 -0.156159 6.64152 3.80728 7.64253
164 -0.168483 8.5224 5.09351 8.57334
165 0.12193 5.6478 3.36214 7.72248
166 0.135008 9.00414 5.67983 9.34417
167 0.270284 7.17435 4.57452 8.76673
168 -0.533305 6.34278 4.89319 9.75592
169 0.14363 8.7609 5.24361 11.1798
170 0.263792 6.60864 5.59247 10.888
171 -0.154991 7.88536 5.78662 11.5475
172 0.169044 4.44387 6.00572 11.017
173 -0.117408 5.42555 6.1882 11.4594
174 -0.059453 8.0335 6.6157 12.677
175 0.18134 9.00152 6.73106 13.1714
176 -0.0471576 5.52837 7.04114 12.5912
177 -0.0371102 6.88166 7.31097 13.2142
178 0.412293 4.43634 7.8088 13.3738
179 -0.496674 3.30128 7.88778 13.0128
180 0.395635 6.68875 8.27871 14.3689
181 -0.41514 5.11514 8.51216 14.5599
182 -0.436849 7.60021 8.79819 14.9237
183 0.200513 2.3504 8.99898 14.9817
184 0.187134 4.4457 9.51521 15.4445
185 -0.121991 3.02852 9.54439 15.6526
186 0.247754 6.28574 10.4336 16.0561
187 -0.127907 5.22666 10.3582 16.3037
188 -0.070476 2.50228 10.1864 16.8094
189 0.221801 1.43637 10.101 17.0435
190 0.189924 4.76443 11.0738 17.4628
191 -0.115801 3.36039 10.9107 17.6886
192 -0.457519 7.94065 11.2935 17.6446
193 -0.429923 5.63571 11.8906 18.3518
194 0.181271 2.94209 11.3567 18.5883
195 0.411047 7.18688 11.9277 18.3142
196 -0.487567 4.14293 12.9656 20.0945
197 0.396855 5.19886 12.8091 19.5778
198 -0.0378187 7.71305 12.9419 19.3265
199 -0.0421232 6.5059 13.4354 20.0882
200 0.168846 9.91587 13.1091 19.0235
201 -0.0472426 9.04366 13.4405 19.5949
202 -0.136198 6.753 14.3891 21.1376
203 0.159402 5.90746 14.7534 21.724
204 -0.11541 9.20177 14.3764 20.6559
205 0.231506 8.07183 14.8385 21.4132
206 0.178033 10.2064 14.7375 20.8987
207 0.140054 9.30315 17.2664 24.5134
208 -0.508629 8.30328 15.7878 22.4246
209 -0.155637 9.11894 16.197 24.6657
210 0.252916 8.72124 15.3164 23.5758
211 0.112231 9.39408 16.387 26.7966
212 0.107865 9.62186 11.7149 26.9027
213 0.148063 11.0652 15.1669 27.829
214 -0.125154 9.19589 15.6979 25.9777
215 -0.163537 8.56965 13.8941 23.873
216 0.16306 8.28799 13.1983 23.0884
217 -0.302314 10.1823 12.4949 27.4535
218 -0.013051 9.04083 14.2783 26.2681
219 -0.300809 10.1752 14.8665 28.4298
220 0.125975 11.0807 12.7514 26.8479
221 -0.129699 8.75063 13.3755 25.1648
222 0.126883 9.58996 15.7845 28.6727
223 0.146091 10.5225 12.0382 28.4024
224 0.162607 10.5906 14.4484 29.374
225 0.0166423 9.27629 13.8178 27.6626
226 0.102807 8.65227 12.2954 25.3074
227 -0.0119854 8.02742 13.5354 28.4516
228 0.100326 7.06721 12.2578 26.9482
229 0.120788 8.57163 14.6815 30.2355
230 -0.124563 6.97377 12.6822 27.9425
231 -0.113792 7.80199 14.0533 29.7857
232 -0.153268 5.82254 12.3358 28.7015
233 -0.169498 6.61963 13.7808 30.5275
234 0.138952 5.09123 11.6286 28.2978
235 0.145646 6.4878 14.2109 31.5242
236 0.23803 5.60476 12.9116 29.9992
237 -0.506186 4.40471 12.6457 30.6399
238 0.149862 6.71538 11.7087 31.6355
239 0.273373 4.53062 11.8845 31.7127
240 -0.157745 5.83376 11.4837 32.2253
241 0.18086 2.37695 11.6525 31.9411
242 -0.104815 3.34442 11.4588 32.3965
243 -0.0680238 5.99481 10.8228 33.4573
244 0.187405 6.99433 10.58 33.8229
245 -0.0299466 3.46655 10.736 33.6219
246 -0.0341241 4.8355 10.4291 34.2136
247 0.415134 2.41893 10.0942 34.5246
248 -0.475356 1.24164 10.2662 34.432
249 0.404507 4.74375 9.59374 35.4857
250 -0.426601 3.16719 9.28682 35.6242
251 -0.447209 5.65597 9.24488 36.1558
252 0.189807 2.48433 8.48346 36.6595
253 0.245459 4.30573 7.91839 37.6935
254 0.216148 0.445102 8.95721 35.9952
255 -0.127167 3.21968 7.76367 37.6584
256 -0.101545 1.04877 8.377 36.6938
257 0.194683 2.61188 6.84589 38.5798
258 -0.0756201 0.385961 7.57663 37.6632
259 0.199656 -0.709767 7.55565 37.7204
260 -0.487126 1.69578 4.69665 40.7653
261 -0.106761 1.17659 6.80869 38.564
262 -0.424433 3.4027 5.92913 39.441
263 0.408471 2.8336 4.89429 40.4911
264 -0.485336 5.8209 6.48005 38.9954
265 0.415955 4.96822 5.8316 39.5194
266 0.191419 0.652107 6.18283 39.2811
267 -0.0251872 3.99841 4.20227 41.1939
268 -0.0455229 5.26297 4.75125 40.5687
269 0.177829 3.1787 2.90426 42.7672
270 -0.108991 4.08574 3.24759 42.2626
271 -0.0851142 6.54203 4.21966 40.9428
272 0.16962 7.4542 4.56942 40.4399
273 0.261004 5.38258 2.791 42.6694
274 -0.149298 6.56543 3.2185 41.9386
275 -0.507377 5.52668 2.06043 43.8027
276 0.173068 7.53407 2.78617 42.1616
ITEM: TIMESTEP
40
ITEM: NUMBER OF ATOMS
276
ITEM: BOX BOUNDS xy xz yz pp pp pp
1.8694536506024981e+00 1.0130546349398081e+01 0.0000000000000000e+00
4.6670323352825553e+00 1.3332967664716261e+01 0.0000000000000000e+00
2.3370666908637290e+00 4.4960854309132927e+01 0.0000000000000000e+00
ITEM: ATOMS id q xu yu zu
1 0.161548 3.93839 0.044519 2.33965
2 -0.167711 4.15712 -0.672347 3.13066
3 0.252481 4.39296 -2.06875 2.79017
4 0.16131 5.65709 -1.29864 8.83616
5 0.111813 4.06216 0.842494 4.6679
6 0.156537 6.03816 0.896401 7.97358
7 -0.120176 4.22371 -0.217392 4.45779
8 -0.157393 4.68055 -2.99248 3.88352
9 0.144328 4.85985 -4.05033 3.6675
10 -0.0213619 4.53105 -1.12914 5.55153
11 -0.295538 5.36005 -1.70511 7.84576
12 -0.137335 4.7386 -2.53127 5.2059
13 0.135074 4.68149 -2.5689 8.01324
14 -0.303225 5.73465 0.63446 6.9363
15 0.138491 6.27983 -2.10517 7.36243
16 0.108858 4.95406 -3.26061 5.98801
17 0.00901878 4.67418 -0.574883 6.92942
18 0.132229 6.66099 0.369248 6.38432
19 0.112683 5.30971 1.54771 6.47174
20 -0.014015 3.40246 -0.0908808 7.5553
21 0.109515 2.10609 -1.50985 6.49194
22 0.117891 4.24516 1.55998 8.7668
23 -0.122385 2.13297 -0.732071 7.25167
24 -0.112334 3.34251 1.00149 8.51601
25 -0.151234 0.948309 -0.418487 7.9501
26 -0.164578 2.14466 1.38519 9.149
27 0.13697 0.0422346 -0.994818 7.75019
28 0.145309 2.14928 2.24129 9.82791
29 0.262177 0.922164 0.630862 8.95072
30 -0.523586 -0.213166 0.843701 9.64452
31 0.174831 1.90204 0.880727 11.4856
32 0.266647 -0.190638 1.30889 10.906
33 -0.152915 0.999579 1.44372 11.7343
34 0.170345 -2.35748 1.65188 10.8626
35 -0.107852 -1.4269 1.85156 11.3985
36 -0.0642215 1.05373 2.29764 12.8491
37 0.174431 1.98486 2.41437 13.4084
38 -0.0298527 -1.43094 2.67171 12.5672
39 -0.0462727 -0.134944 2.9901 13.2839
40 0.408816 -2.5695 3.36282 13.3317
41 -0.483081 -3.70421 3.33236 12.9892
42 0.414785 -0.397378 3.92746 14.4609
43 -0.431294 -1.9441 4.13856 14.5519
44 -0.470316 0.443229 4.39193 15.1641
45 0.195038 -4.65905 4.19856 14.9686
46 0.193646 -2.69106 4.95056 15.5584
47 -0.103299 -4.12114 4.87802 15.6256
48 0.234728 -1.00104 5.98525 16.4548
49 -0.131992 -2.08896 5.86939 16.4789
50 -0.0832797 -4.89213 5.67567 16.5204
51 0.182236 -5.98695 5.61224 16.5217
52 0.192549 -2.79411 6.70006 17.4108
53 -0.103509 -4.22759 6.56277 17.4078
54 -0.49136 -4.09081 8.38932 19.6798
55 -0.418911 -2.14633 7.68384 18.3165
56 0.2129 -4.84706 7.16219 18.0777
57 0.411307 -2.92355 8.4173 19.4384
58 -0.454564 0.341648 7.54151 17.9745
59 0.41567 -0.589642 7.97128 18.5668
60 -0.0396388 -1.89882 9.16671 20.2946
61 -0.0148422 -0.502371 8.91132 19.7687
62 0.164157 -3.16278 10.2032 21.7725
63 -0.0692922 -2.14054 10.0245 21.4258
64 -0.123584 0.575736 9.59273 20.4232
65 0.18206 1.59634 9.49615 20.0474
66 -0.136973 -1.03178 10.6185 22.067
67 0.268326 0.310261 10.4152 21.5575
68 0.129325 -1.20376 11.2476 22.9434
69 0.178297 2.30131 8.56547 21.9184
70 -0.518223 1.27794 11.1794 22.1562
71 -0.153667 2.72759 9.23196 22.6661
72 0.263303 2.34502 10.637 22.7264
73 0.127695 3.81584 7.62918 23.5583
74 0.121743 4.66563 6.64501 25.1704
75 0.117019 7.24763 9.08564 26.4827
76 -0.104786 3.61583 8.70171 23.6053
77 -0.1504 3.03299 11.4818 23.7017
78 0.14641 2.78593 12.5456 23.7489
79 -0.309161 5.55062 7.31708 25.1608
80 -0.0221016 4.27521 9.50438 24.6338
81 -0.311762 6.59027 9.52138 25.6984
82 0.14502 5.97549 7.33448 24.1316
83 -0.134074 3.9508 10.9299 24.5993
84 0.134187 7.12542 9.42169 24.7286
85 0.132628 6.31851 6.8317 25.803
86 0.106678 6.48027 10.6014 25.9065
87 0.0227318 5.18861 8.80446 25.6549
88 0.103282 4.41809 11.604 25.3205
89 -0.0104591 4.5947 8.77558 27.0221
90 0.118507 6.19991 7.54973 27.9182
91 0.11511 2.78732 9.96653 26.5687
92 -0.11184 5.25278 8.06022 28.1074
93 -0.124693 3.33835 9.43454 27.3502
94 -0.162134 4.69529 7.97259 29.395
95 -0.158545 2.81676 9.41422 28.6541
96 0.13917 5.20293 7.37175 30.1476
97 0.131265 1.88041 9.93821 28.8616
98 0.268103 3.46328 8.66827 29.7288
99 -0.520372 2.84575 8.6021 30.8961
100 0.137954 5.33823 8.16611 32.0955
101 0.254312 3.19938 7.75254 31.9228
102 -0.157669 4.51112 7.58125 32.5006
103 0.154482 1.10765 7.16707 32.1623
104 -0.127324 2.12501 7.05787 32.5467
105 -0.0683117 4.8016 6.70115 33.5794
106 0.173521 5.83071 6.59074 33.9315
107 -0.0436967 2.35624 6.25352 33.7169
108 -0.035011 3.74653 5.9987 34.2527
109 0.402955 1.3394 5.56263 34.632
110 -0.479562 0.168679 5.58045 34.4244
111 0.402388 3.66031 5.08558 35.4799
112 -0.412127 2.13996 4.85755 35.7826
113 -0.427731 4.5867 4.65245 36.0864
114 0.196753 1.53287 4.01663 36.8644
115 0.238356 3.30583 2.92745 37.4382
116 0.208377 -0.472751 4.88378 36.6068
117 -0.130774 2.24473 3.06931 37.6692
118 -0.105993 0.138348 4.15992 37.1554
119 0.195325 1.70806 2.29774 38.7551
120 -0.0800189 -0.48414 3.37424 38.1658
121 0.197373 -1.55547 3.48622 38.3635
122 -0.505327 0.764315 0.464923 41.191
123 -0.106522 0.294409 2.45828 38.9304
124 -0.425554 2.49663 1.47428 39.7154
125 0.405247 1.90452 0.6108 40.8903
126 -0.444809 4.8903 1.75729 39.0986
127 0.399345 4.04786 1.27488 39.7839
128 0.194724 -0.226575 1.89321 39.701
129 -0.0400263 3.05387 -0.0867716 41.6166
130 -0.0362664 4.34153 0.306571 40.9395
131 0.160278 2.17588 -1.25583 43.2667
132 -0.130438 3.09849 -0.990102 42.7424
133 -0.0479078 5.57474 -0.261564 41.4178
134 0.185678 6.5218 0.0151299 40.947
135 0.241508 4.32694 -1.56044 43.1533
136 -0.126648 5.54587 -1.21182 42.4787
137 -0.511332 4.3737 -2.51878 44.1823
138 0.152487 6.48578 -1.67734 42.7914
139 0.172973 6.39565 4.58295 1.37368
140 -0.154751 6.88459 3.86705 2.03523
141 0.248678 6.51322 2.46399 1.97813
142 0.133156 11.2227 2.95748 4.02571
143 0.121886 8.03568 5.40984 2.9993
144 0.146415 10.2217 5.49829 3.37609
145 -0.10846 7.83164 4.33805 2.96479
146 -0.155542 7.15425 1.5607 2.91697
147 0.141029 6.87344 0.502321 2.92012
148 -0.0100254 8.5105 3.43187 3.88078
149 -0.310055 10.7834 3.17806 5.02548
150 -0.120269 8.12934 2.02936 3.81799
151 0.111767 11.5635 3.73505 5.5907
152 -0.309103 9.93935 5.45541 4.45366
153 0.125599 10.6144 2.2223 5.56254
154 0.114307 8.58182 1.31381 4.50996
155 0.0217024 9.42914 4.03113 4.88811
156 0.117845 9.18803 6.2509 4.65591
157 0.132701 10.8472 5.74245 5.0216
158 -0.0115536 8.70753 4.1688 6.24622
159 0.122625 6.87656 3.10166 5.63732
160 0.109087 10.2613 5.29203 7.3339
161 -0.111913 7.35869 3.64576 6.45377
162 -0.111756 9.25269 4.88225 7.39761
163 -0.154621 6.64673 3.80745 7.64599
164 -0.168528 8.53866 5.09949 8.58137
165 0.122424 5.64599 3.3794 7.72877
166 0.135382 9.01064 5.68597 9.3625
167 0.268604 7.1925 4.57495 8.76376
168 -0.532723 6.35435 4.86842 9.75951
169 0.144059 8.76034 5.24899 11.1902
170 0.2652 6.60182 5.58242 10.8825
171 -0.153806 7.87652 5.77892 11.5496
172 0.167862 4.44123 5.99898 11.0022
173 -0.119705 5.42278 6.18653 11.4472
174 -0.0577056 8.02204 6.61425 12.676
175 0.182598 8.99987 6.73553 13.1506
176 -0.046771 5.52497 7.04052 12.5823
177 -0.0366703 6.87463 7.30541 13.2116
178 0.412485 4.43319 7.80435 13.3583
179 -0.495805 3.29387 7.87499 13.0217
180 0.398068 6.69145 8.28422 14.3647
181 -0.414161 5.1285 8.53337 14.5335
182 -0.437044 7.59094 8.79947 14.9424
183 0.200527 2.36756 8.99111 15.0031
184 0.18762 4.46673 9.51569 15.4461
185 -0.121726 3.05062 9.5339 15.6675
186 0.248908 6.3005 10.433 16.0795
187 -0.12868 5.237 10.3571 16.3158
188 -0.0730208 2.51472 10.182 16.8146
189 0.220658 1.44466 10.106 17.0196
190 0.189794 4.76206 11.0626 17.474
191 -0.114208 3.35854 10.9096 17.7055
192 -0.460389 7.91975 11.2731 17.6171
193 -0.426927 5.64298 11.8803 18.3591
194 0.181275 2.91632 11.3659 18.5907
195 0.408829 7.19365 11.9384 18.2852
196 -0.486168 4.15357 12.9542 20.065
197 0.398132 5.22594 12.7977 19.5823
198 -0.041052 7.7038 12.9455 19.3187
199 -0.0417924 6.51534 13.4431 20.1022
200 0.167441 9.89219 13.1004 19.0228
201 -0.047852 9.02938 13.4372 19.603
202 -0.136571 6.75487 14.401 21.151
203 0.158252 5.90894 14.7749 21.7332
204 -0.115784 9.19251 14.376 20.6631
205 0.23033 8.07236 14.8508 21.4251
206 0.177268 10.1973 14.7441 20.893
207 0.142156 9.27898 17.2586 24.4776
208 -0.509097 8.31179 15.8065 22.4299
209 -0.154678 9.09018 16.1986 24.6652
210 0.252324 8.70116 15.31 23.5788
211 0.112747 9.42172 16.4081 26.7816
212 0.107912 9.62711 11.6979 26.9197
213 0.148026 11.0607 15.1634 27.8255
214 -0.125371 9.1875 15.7093 25.9786
215 -0.166021 8.56229 13.8864 23.8672
216 0.163564 8.30594 13.1969 23.0643
217 -0.302409 10.181 12.4892 27.4654
218 -0.0137866 9.0261 14.2917 26.2724
219 -0.300565 10.1798 14.8577 28.4339
220 0.125327 11.0852 12.7303 26.8612
221 -0.127598 8.73487 13.3893 25.1679
222 0.127582 9.60952 15.7793 28.6875
223 0.147095 10.5205 12.0649 28.4314
224 0.162254 10.5846 14.4413 29.3826
225 0.0165322 9.27463 13.8103 27.6605
226 0.103303 8.64172 12.3109 25.3242
227 -0.0109337 8.03185 13.5219 28.4539
228 0.100115 7.08568 12.2504 26.9351