276
 Atoms. Timestep: 0
2 3.98643 8.66407 2.38738
1 4.12773 7.96812 3.171
1 4.33116 6.55216 2.78728
2 5.69965 7.41777 8.88507
2 4.05247 9.52533 4.6778
2 6.00318 9.59249 8.02929
1 4.21934 8.48623 4.49428
1 4.71191 5.66361 3.87176
2 4.87773 13.2197 3.65068
1 4.51858 7.54345 5.53612
1 5.35724 6.99745 7.81506
1 4.74767 6.14892 5.2016
2 4.7577 6.04466 7.93795
1 5.71808 9.27475 6.95095
2 6.23197 6.48408 7.36385
2 4.88781 5.40058 5.97416
1 4.67277 8.10433 6.90788
2 6.65329 9.04039 6.36351
2 5.33828 10.1918 6.5141
1 3.40664 8.57353 7.53005
2 2.09218 7.20255 6.46392
2 4.23335 10.2332 8.78356
1 2.14487 7.92957 7.24992
1 3.32372 9.67018 8.51281
1 9.20751 8.22001 7.98969
1 2.13173 10.035 9.14029
2 8.32148 7.62696 7.78716
2 2.13491 10.9003 9.83264
1 9.16356 9.33223 8.89201
3 8.02135 9.58068 9.57107
2 1.90318 9.53804 11.5545
1 8.07854 9.94545 10.8821
1 9.25026 10.0976 11.7392
2 5.91241 10.3219 10.8065
1 6.83788 10.4413 11.4044
1 9.31584 10.9581 12.8644
2 1.98804 11.0896 13.4289
1 6.85726 11.2756 12.5744
1 8.14325 11.7171 13.2257
1 5.75105 11.9809 13.3373
3 4.57207 12.0387 13.0153
1 7.86647 12.6945 14.3924
4 6.30818 12.7423 14.5804
3 8.64142 13.0267 15.2134
2 3.60699 12.899 15.0151
1 5.59488 4.96648 15.5525
1 4.15416 4.89027 15.6618
2 7.28302 6.08309 16.4479
1 6.19906 5.81468 16.564
1 3.34237 5.69781 16.5497
2 2.18305 5.61975 16.4947
1 5.42715 6.64481 17.4442
1 4.05169 6.53498 17.4282
3 4.18988 8.37745 19.6518
4 6.12817 7.73673 18.2863
2 3.41861 7.16373 18.0496
1 5.3583 8.41273 19.4294
3 8.60884 7.56215 17.9649
1 7.64466 7.92509 18.5863
1 6.38131 9.14568 20.2816
1 7.74911 8.88276 19.7939
2 5.09212 10.175 21.7007
1 6.12781 10.036 21.4208
1 8.84998 9.58411 20.4433
2 9.85939 9.54325 20.0621
1 7.21168 10.605 22.087
1 8.57582 10.4583 21.5754
2 7.08064 11.2387 22.9745
2 2.35771 8.56875 21.9572
3 9.51489 11.2468 22.1338
1 2.78208 9.27146 22.6384
1 2.30869 10.6538 22.6963
2 3.83891 7.61193 23.6509
2 4.69344 6.62578 25.1579
2 7.23046 9.04549 26.4792
1 3.63113 8.68441 23.6339
1 2.98141 11.4534 23.6764
2 2.72151 12.5695 23.7449
1 5.57409 7.344 25.1888
1 4.29312 9.47754 24.5898
1 6.61485 9.50804 25.6902
2 5.96958 7.38195 24.1303
1 3.92709 10.9294 24.558
2 7.17116 9.40738 24.7101
2 6.32104 6.75938 25.7867
2 6.43221 10.5691 25.8957
1 5.21018 8.82562 25.6688
2 4.40985 11.6194 25.3117
1 4.57077 8.79006 27.0142
2 6.18317 7.59367 27.9293
2 2.7504 9.9453 26.5916
1 5.24844 8.08102 28.1105
1 3.31092 9.4703 27.3469
1 4.71659 7.94709 29.3933
1 2.81878 9.44261 28.6511
2 5.19233 7.34388 30.1713
2 1.88756 9.96571 28.8272
1 3.45913 8.65244 29.7171
3 2.84486 8.65621 30.8426
2 5.32064 8.16716 32.1353
1 3.20921 7.79475 31.9358
1 4.4891 7.60221 32.5247
2 9.36343 7.11648 32.16
1 2.1416 7.02517 32.529
1 4.79318 6.64381 33.5258
2 5.8551 6.5963 33.9212
1 2.35555 6.28205 33.7299
1 3.71708 5.95907 34.258
1 9.57035 5.59263 34.6549
3 8.41866 5.61502 34.3464
1 3.69079 5.07178 35.4942
4 2.19671 4.89763 35.8129
3 4.58827 13.2881 36.1382
1 9.81178 12.6909 36.8515
2 3.26943 11.574 37.4178
2 7.77834 4.90456 36.6664
1 2.24478 11.7234 37.6651
1 8.42025 12.8102 37.1157
1 9.97496 10.9724 38.7263
1 7.78067 12.0298 38.1305
2 6.6857 12.1359 38.4765
3 9.02661 9.10924 41.1832
1 8.55038 11.1237 38.881
4 2.4758 10.136 39.7373
1 1.92708 9.31436 40.8996
3 4.93461 10.3723 39.1296
1 4.04786 9.97629 39.8127
2 8.01639 10.6365 39.6707
1 3.05331 8.55723 41.6151
1 4.33408 8.94659 40.9196
2 2.20038 7.43299 43.2899
1 3.10575 7.64013 42.7421
1 5.57954 8.4101 41.4411
2 6.49393 8.72245 40.9702
1 4.33054 7.14811 43.1927
1 5.55882 7.45149 42.4881
3 4.3515 6.13532 44.1564
2 6.50847 6.93932 42.7502
2 6.34925 13.2465 44.0008
1 6.92642 12.531 44.6825
1 6.56953 11.095 44.5775
2 3.00088 11.6477 4.0106
2 8.03472 5.41339 2.98261
2 1.94012 5.53815 3.34943
1 7.81609 13.0597 3.01091
1 7.17081 10.1881 2.8978
2 6.80418 9.14938 2.93252
1 8.50747 12.1001 3.87335
1 2.53052 11.8615 5.03488
1 8.13748 10.6925 3.80719
2 3.37734 12.456 5.56147
1 10.0016 5.46784 4.4464
2 2.33354 10.9078 5.55496
2 8.55324 9.9139 4.50955
1 9.44114 12.6978 4.88423
2 9.22708 6.20262 4.66275
2 2.63912 5.74613 5.06745
1 8.68995 12.8214 6.20837
2 6.89079 11.7627 5.64551
2 1.99747 5.31061 7.35995
1 7.34506 12.3482 6.45223
1 9.22651 4.89673 7.39019
1 6.61602 12.478 7.64049
1 8.51373 5.08212 8.56661
2 5.66461 12.0148 7.71617
2 9.01058 5.68491 9.32919
1 7.14784 13.2225 8.7835
3 6.3287 4.89601 9.71406
2 8.78647 5.22058 11.1635
1 6.61284 5.60714 10.9019
1 7.90585 5.78715 11.5272
2 4.42277 6.01604 11.0161
1 5.43245 6.16432 11.4651
1 8.03677 6.63869 12.685
2 9.03843 6.72314 13.2085
1 5.51423 7.05021 12.6181
1 6.86578 7.30725 13.1839
1 4.43471 7.83877 13.4011
3 3.29838 7.88442 12.9893
1 6.70215 8.28172 14.3873
4 5.11872 8.50075 14.5916
3 7.612 8.79858 14.9092
2 2.35263 8.98957 14.9542
1 4.40814 9.4853 15.4622
1 2.98024 9.57855 15.6322
2 6.30611 10.4403 16.0335
1 5.19353 10.3633 16.2888
1 2.48732 10.2097 16.7767
2 9.68059 10.0808 17.0822
1 4.75225 11.0835 17.4846
1 3.37309 10.9143 17.6956
3 7.96113 11.3364 17.6721
4 5.62379 11.9137 18.3371
2 2.98349 11.3501 18.5707
1 7.19639 11.8956 18.3844
3 4.15084 12.9839 20.134
1 5.15947 12.8384 19.5648
1 7.73727 12.9441 19.2854
1 6.49034 4.70922 20.0701
2 9.95004 13.1047 19.0055
1 9.05439 4.80116 19.6203
1 6.6959 5.70263 21.0965
2 5.94479 6.07944 21.7349
1 9.18669 5.7212 20.6793
1 8.02597 6.1663 21.3777
2 1.99409 6.05861 20.8887
2 9.31023 8.60465 24.5809
3 8.3031 7.0864 22.4151
1 9.17297 7.54313 24.6265
1 8.72683 6.66495 23.5767
2 9.36064 7.68634 26.8315
2 9.6375 11.7137 26.9024
2 2.8322 6.4955 27.812
1 9.22001 7.04145 25.9477
1 8.55591 5.24413 23.8988
2 8.27627 13.1791 23.1001
1 1.9032 12.535 27.452
1 9.02397 5.62798 26.275
1 1.92869 6.25967 28.4731
2 2.80099 12.756 26.8511
1 8.80495 4.69912 25.1617
2 9.54847 7.11862 28.6473
2 2.26285 12.0035 28.3513
2 2.33994 5.76441 29.3675
1 9.28524 5.15814 27.6724
2 8.63942 12.2536 25.2831
1 8.02592 4.87333 28.4469
2 7.05752 12.2622 26.9674
2 8.58946 5.99106 30.2108
1 6.94833 12.7046 27.9629
1 7.79491 5.41005 29.7678
1 5.81058 12.3183 28.7424
1 6.617 5.09663 30.5356
2 5.11563 11.6315 28.3041
2 6.47018 5.53819 31.5129
1 5.60885 12.9081 30.021
3 4.38563 12.6436 30.626
2 6.68252 11.7158 31.6058
1 4.53008 11.9259 31.7139
1 5.83798 11.441 32.2292
2 2.39262 11.6619 31.8826
1 3.3585 11.4466 32.4136
1 5.99387 10.8213 33.4712
2 6.99021 10.5967 33.8074
1 3.49027 10.7446 33.6208
1 4.81879 10.4254 34.2406
1 2.40193 10.0663 34.5135
3 9.51003 10.2608 34.4741
1 4.75564 9.579 35.5216
4 3.14774 9.27841 35.6185
3 5.67408 9.25457 36.1562
1 2.48339 8.49725 36.6719
2 4.34243 7.9678 37.6882
2 8.72622 8.9713 35.9963
1 3.23641 7.71247 37.6619
1 9.30302 8.35288 36.6605
1 2.59197 6.90349 38.5902
1 8.62386 7.55756 37.6527
2 7.54579 7.5649 37.7626
3 9.98096 4.70747 40.7527
1 9.42742 6.80208 38.5134
4 3.40359 5.93394 39.4358
1 2.85312 4.87249 40.4543
3 5.83935 6.45537 39.035
1 4.95127 5.8123 39.5161
2 8.91951 6.18513 39.2808
1 4.02733 12.8613 41.1963
1 5.24435 4.76719 40.5507
2 3.16324 11.583 42.7721
1 4.06633 11.8938 42.2848
1 6.56102 12.9432 40.9609
2 7.44033 13.2405 40.3928
1 5.3661 11.4236 42.6704
1 6.55359 11.8836 41.9257
3 5.51768 10.725 43.8309
2 7.52739 11.4627 42.1316
276
 Atoms. Timestep: 49
2 3.93611 8.71668 2.33546
1 4.15757 7.99932 3.12654
1 4.39499 6.6027 2.78918
2 5.65103 7.36777 8.84013
2 4.0616 9.50855 4.66559
2 6.04455 9.56341 7.96649
1 4.22531 8.44994 4.45509
1 4.68197 5.67987 3.88388
2 4.85772 13.2878 3.66745
1 4.53312 7.53979 5.55029
1 5.35663 6.96298 7.8484
1 4.74445 6.13801 5.20702
2 4.67276 6.10376 8.02147
1 5.73552 9.30094 6.93115
2 6.27942 6.56581 7.36796
2 4.96307 5.40862 5.98978
1 4.67396 8.09219 6.92865
2 6.66101 9.03348 6.37873
2 5.30878 10.2126 6.46448
1 3.40332 8.57323 7.55747
2 2.10719 7.15105 6.49785
2 4.24793 10.2265 8.76319
1 2.13432 7.93115 7.25586
1 3.3441 9.66675 8.51659
1 9.21013 8.25133 7.94895
1 2.14718 10.0492 9.15188
2 8.3006 7.68337 7.74106
2 2.15427 10.9072 9.82919
1 9.18483 9.29559 8.95501
3 8.05044 9.49003 9.65476
2 1.90418 9.55601 11.4718
1 8.06927 9.97691 10.9085
1 9.26356 10.1132 11.7315
2 5.90079 10.3251 10.8656
1 6.83269 10.5223 11.3994
1 9.31543 10.9595 12.8521
2 1.98749 11.0782 13.4092
1 6.83055 11.341 12.569
1 8.12594 11.6465 13.2902
1 5.68772 12.0351 13.3266
3 4.55161 11.9965 12.9902
1 7.86592 12.5869 14.4645
4 6.31549 12.8108 14.5463
3 8.70858 13.0595 15.1572
2 3.60011 12.8599 14.9619
1 5.5685 4.95328 15.5491
1 4.13555 4.87814 15.617
2 7.26038 5.974 16.4523
1 6.1709 5.87091 16.4735
1 3.37189 5.67545 16.5163
2 2.27676 5.60687 16.5262
1 5.46897 6.70362 17.4068
1 4.03385 6.56557 17.4015
3 4.16802 8.39061 19.6843
4 6.11384 7.67765 18.3203
2 3.41668 7.16135 18.0743
1 5.33272 8.417 19.4444
3 8.59951 7.54066 17.9764
1 7.67002 7.97461 18.5654
1 6.35843 9.17193 20.2951
1 7.75415 8.91856 19.7647
2 5.10069 10.2041 21.7832
1 6.12064 10.0262 21.4281
1 8.83579 9.59239 20.4204
2 9.85647 9.4859 20.0436
1 7.23205 10.6208 22.0637
1 8.57502 10.4146 21.5559
2 7.06117 11.252 22.9384
2 2.28906 8.56651 21.9178
3 9.53861 11.177 22.1625
1 2.72182 9.22952 22.666
1 2.34539 10.6362 22.7322
2 3.81666 7.62786 23.5458
2 4.66098 6.64663 25.1751
2 7.24721 9.09241 26.4825
1 3.61393 8.69917 23.6007
1 3.04032 11.4806 23.7042
2 2.80309 12.5475 23.748
1 5.54778 7.3171 25.1628
1 4.27142 9.49954 24.6325
1 6.58779 9.52562 25.6978
2 5.97134 7.32868 24.1335
1 3.95278 10.9261 24.6037
2 7.12092 9.42753 24.7273
2 6.31684 6.83736 25.8071
2 6.48028 10.606 25.9081
1 5.18801 8.80573 25.6557
2 4.4242 11.5978 25.3272
1 4.5975 8.77251 27.0222
2 6.20032 7.53954 27.9165
2 2.79449 9.96686 26.5708
1 5.25428 8.05476 28.1064
1 3.3431 9.43264 27.3534
1 4.69933 7.97251 29.3956
1 2.81847 9.40963 28.657
2 5.20899 7.37555 30.1493
2 1.8809 9.93159 28.8642
1 3.46618 8.66533 29.7308
3 2.84438 8.59069 30.8972
2 5.34502 8.15962 32.0843
1 3.20254 7.74963 31.9242
1 4.5157 7.5801 32.4962
2 9.36494 7.17811 32.1668
1 2.12147 7.0617 32.55
1 4.80138 6.7083 33.5803
2 5.82975 6.59898 33.939
1 2.352 6.25285 33.7173
1 3.74275 6.00644 34.2497
1 9.59958 5.5546 34.6308
3 8.42656 5.57434 34.434
1 3.66096 5.08863 35.475
4 2.14138 4.84622 35.774
3 4.59049 13.3239 36.0783
1 9.79792 12.6843 36.864
2 3.3088 11.6 37.4476
2 7.78861 4.87465 36.6008
1 2.24643 11.7408 37.6763
1 8.40088 12.8226 37.155
1 9.96703 10.9667 38.7584
1 7.7772 12.0377 38.1649
2 6.70344 12.148 38.3552
3 9.02516 9.13257 41.1962
1 8.55325 11.1232 38.9336
4 2.49344 10.1344 39.7111
1 1.90306 9.27509 40.8925
3 4.88346 10.4312 39.0932
1 4.04758 9.94101 39.7791
2 8.03495 10.5516 39.7024
1 3.05608 8.58087 41.6148
1 4.3433 8.97337 40.9344
2 2.17165 7.40584 43.2574
1 3.09704 7.67389 42.7387
1 5.57444 8.40242 41.4127
2 6.5224 8.67285 40.9402
1 4.32513 7.10742 43.1526
1 5.54416 7.45868 42.4788
3 4.377 6.14976 44.1824
2 6.48347 6.99695 42.7974
2 6.39712 13.2509 43.9921
1 6.88218 12.534 44.6579
1 6.5105 11.1315 44.6035
2 2.95359 11.6185 4.02777
2 8.03726 5.41141 2.99261
2 1.95803 5.49031 3.37665
1 7.82933 13.0055 2.96427
1 7.15504 10.2303 2.91733
2 6.88002 9.17029 2.91763
1 8.50562 12.1024 3.88403
1 2.5155 11.8385 5.02833
1 8.12926 10.6992 3.82067
2 3.29415 12.3922 5.59916
1 9.93272 5.45472 4.45304
2 2.34592 10.8817 5.56261
2 8.5869 9.9844 4.51107
1 9.42331 12.6951 4.89176
2 9.17816 6.24912 4.64923
2 2.57785 5.74607 5.02058
1 8.70881 12.8321 6.25093
2 6.87622 11.767 5.63813
2 2.00668 5.28829 7.33278
1 7.35806 12.3097 6.4566
1 9.25752 4.88044 7.40219
1 6.64794 12.4737 7.64705
1 8.54698 5.10034 8.58494
2 5.64518 12.0525 7.73264
2 9.01643 5.68831 9.36739
1 7.19936 13.24 8.76495
3 6.35908 4.85708 9.7612
2 8.7596 5.24761 11.193
1 6.60027 5.57713 10.8816
1 7.87443 5.77628 11.5497
2 4.4408 5.99737 10.995
1 5.42053 6.18381 11.4431
1 8.0194 6.61429 12.6726
2 8.99788 6.73888 13.145
1 5.52288 7.03783 12.5768
1 6.87166 7.30565 13.2089
1 4.43183 7.80573 13.3519
3 3.29051 7.86572 13.0241
1 6.69204 8.28713 14.3606
4 5.13393 8.54614 14.5219
3 7.5896 8.79578 14.948
2 2.37849 8.98347 15.0097
1 4.47469 9.51405 15.449
1 3.05838 9.52953 15.6731
2 6.30662 10.4328 16.0926
1 5.24176 10.353 16.324
1 2.51787 10.1817 16.8156
2 9.70752 10.107 17.0127
1 4.76138 11.0584 17.4804
1 3.35705 10.9101 17.7099
3 7.91685 11.2719 17.6057
4 5.64449 11.8772 18.3614
2 2.91006 11.3698 18.5914
1 7.19678 11.9377 18.2783
3 4.15609 12.9533 20.0593
1 5.23151 12.7953 19.5837
1 7.70113 12.9453 19.3163
1 6.5164 4.77842 20.1061
2 9.886 13.0986 19.0245
1 9.02397 4.77131 19.604
1 6.75348 5.73917 21.1536
2 5.90988 6.11698 21.7366
1 9.18918 5.71162 20.6623
1 8.07058 6.18918 21.4245
2 1.93372 6.07923 20.8908
2 9.26587 8.59425 24.4683
3 8.31225 7.14433 22.4289
1 9.07962 7.53541 24.6628
1 8.69176 6.6435 23.5794
2 9.43096 7.74943 26.7761
2 9.62887 11.6903 26.9335
2 2.80165 6.49425 27.8263
1 9.18701 7.04774 25.9764
1 8.55795 5.21996 23.8658
2 8.31346 13.1932 23.0606
1 1.91888 12.4881 27.473
1 9.02224 5.63174 26.274
1 1.92165 6.18915 28.4367
2 2.82467 12.7224 26.869
1 8.72758 4.7296 25.17
2 9.61492 7.11161 28.6932
2 2.2579 12.0747 28.4435
2 2.32374 5.76928 29.3851
1 9.27308 5.14402 27.6589
2 8.63562 12.3166 25.3303
1 8.03404 4.85445 28.4534
2 7.09381 12.2472 26.9316
2 8.55599 6.02526 30.2491
1 6.98569 12.6711 27.928
1 7.80413 5.38534 29.7832
1 5.82205 12.348 28.6767
1 6.62316 5.11288 30.5208
2 5.07825 11.6572 28.2668
2 6.49625 5.54736 31.5182
1 5.60802 12.9156 29.9795
3 4.42085 12.6343 30.6287
2 6.75134 11.7315 31.6611
1 4.54475 11.8769 31.7061
1 5.85173 11.491 32.2264
2 2.35876 11.671 31.9731
1 3.35031 11.465 32.3926
1 6.01206 10.8194 33.4501
2 7.01092 10.5711 33.8219
1 3.47566 10.746 33.6152
1 4.84347 10.423 34.1935
1 2.40951 10.1213 34.5213
3 9.49825 10.2632 34.3828
1 4.72204 9.59201 35.4641
4 3.15855 9.31634 35.6326
3 5.62927 9.23145 36.1386
1 2.48543 8.50092 36.6717
2 4.29194 7.86539 37.6825
2 8.69489 8.9506 36.003
1 3.20212 7.74884 37.6605
1 9.31217 8.39237 36.7101
1 2.60388 6.83832 38.596
1 8.65607 7.57986 37.6731
2 7.56286 7.54034 37.6964
3 9.9455 4.7016 40.7909
1 9.42977 6.80931 38.5878
4 3.39586 5.92834 39.4615
1 2.81937 4.91004 40.5217
3 5.78371 6.48277 38.9651
1 4.96189 5.83338 39.5261
2 8.90005 6.17511 39.2974
1 4.00884 12.8832 41.2007
1 5.2753 4.74974 40.562
2 3.19394 11.5645 42.7548
1 4.10382 11.924 42.2505
1 6.54767 12.8681 40.9515
2 7.46567 13.2145 40.4673
1 5.38725 11.4606 42.6638
1 6.58399 11.8767 41.9535
3 5.52511 10.7181 43.795
2 7.5534 11.4471 42.2163
