LAMMPS data file via write_data, version 29 Aug 2024, timestep = 200000, units = real

276 atoms
4 atom types

1.8694536506024981 10.130546349398081 xlo xhi
4.667032335282555 13.33296766471626 ylo yhi
2.337066690863729 44.96085430913293 zlo zhi
0 0 0 xy xz yz

Masses

1 12.0107
2 1.00794
3 15.999
4 14.0067

Atoms # charge

8 1 -0.1510581108935924 4.711909962318069 5.663609450151009 3.871756663121924 0 -1 0
12 1 -0.1382711603474177 4.747669116536356 6.148922860026912 5.201604817357114 0 -1 0
2 1 -0.1681106588054483 4.127730327738341 7.968118418430158 3.1710039255009526 0 -1 0
144 2 0.1462706441457678 1.9401198410495497 5.538152336945664 3.3494291666337555 1 0 0
10 1 -0.0191292470049894 4.518576164883972 7.5434487629794305 5.5361231400151745 0 -1 0
3 1 0.2420854817613548 4.331160928315802 6.552156489170644 2.7872785643211313 0 -1 0
17 1 0.01574706134189771 4.6727697617958235 8.104327030228779 6.907883951936211 0 -1 0
21 2 0.1106357595132674 2.092184153764354 7.202549456955287 6.463919410840108 0 -1 0
16 2 0.1061048724173093 4.887809879010591 5.400581334711149 5.974155145060636 0 -1 0
15 2 0.1379770442432924 6.231969051142167 6.484083706423709 7.3638532992565064 0 -1 0
23 1 -0.1240500434189938 2.144874941433734 7.929570039328874 7.249917970404801 0 -1 0
156 2 0.120195635736166 9.227083942571387 6.202618639895631 4.662752084540509 0 0 0
143 2 0.1247938940258382 8.034716136522565 5.413389753325707 2.982608128834889 0 0 0
20 1 -0.01398427032367471 3.406644942674893 8.573527502906982 7.5300487907558455 0 -1 0
7 1 -0.1244741633168791 4.219344963992762 8.486231632723356 4.4942821372439425 0 -1 0
152 1 -0.3081931819027773 10.001625214567602 5.467843647077942 4.446404719828944 0 0 0
157 2 0.1323001824058517 2.6391235020938475 5.7461261589121415 5.067454697856087 1 0 0
160 2 0.1085209720438338 1.9974707336557471 5.310606293503519 7.359949834238675 1 0 0
162 1 -0.1091586672477136 9.226510885376594 4.8967254969638025 7.390192122290851 0 0 0
1 2 0.1609352849999109 3.986430066952817 8.66407050804289 2.3873764785283673 0 -1 0
176 1 -0.04552534743788731 5.514233376223888 7.050210749186071 12.61813510566234 0 0 0
4 2 0.1587123039646428 5.699651757220918 7.417774329826784 8.885067242514715 0 -1 0
169 2 0.1414912657610687 8.786466795996873 5.22058003914754 11.163535073969582 0 0 0
173 1 -0.1111970479319066 5.432453457028792 6.164319727173862 11.465065256741402 0 0 0
174 1 -0.06127784379114776 8.0367719839916 6.638685864877753 12.685002836840287 0 0 0
164 1 -0.1689077392180374 8.513734326692685 5.082120545290673 8.566606608254872 0 0 0
11 1 -0.2818029040404609 5.357242831382899 6.997453810906295 7.81505855842074 0 -1 0
171 1 -0.1529099098544605 7.905847791217577 5.787150786057122 11.52718832231162 0 0 0
25 1 -0.1529723095718505 9.207508286996157 8.220008333904929 7.989687442105832 -1 -1 0
170 1 0.2448704614167736 6.612842215110582 5.607141051898795 10.901935546445923 0 0 0
172 2 0.1681783078621938 4.422771733745286 6.016042513163395 11.016082402523402 0 0 0
168 3 -0.5350808499052112 6.328703512285589 4.8960096425897595 9.7140635722896 0 0 0
166 2 0.1346773041196978 9.010583601490808 5.6849137132775285 9.329194917145106 0 0 0
13 2 0.1327318869769406 4.757702691965772 6.044664593698899 7.937951602590606 0 -1 0
27 2 0.1392454940195911 8.321484881899433 7.626955372259172 7.787164844607925 -1 -1 0
179 3 -0.496179473698551 3.2983826407938652 7.884419349479332 12.9893101259987 0 0 0
58 3 -0.4515487232149606 8.608843773344741 7.562149340674537 17.96493906018342 -1 0 0
49 1 -0.120151384993447 6.199063384879451 5.814675971036866 16.56397216387945 -1 0 0
50 1 -0.08570308229241966 3.342365412525087 5.697814450162807 16.549684118724464 -1 0 0
56 2 0.2123317704694578 3.4186070387581093 7.163729494681076 18.049563270992373 -1 0 0
180 1 0.4028959984797192 6.7021482469604585 8.281719132783135 14.387321596760799 0 0 0
178 1 0.4075582647117449 4.434711506147166 7.838769660011044 13.40108090934 0 0 0
53 1 -0.1030027408340873 4.051690227900924 6.534976484074546 17.42821188258433 -1 0 0
182 3 -0.4443605283723037 7.611995884246039 8.798580825133065 14.909173408530322 0 0 0
51 2 0.1799124483479497 2.1830487547937882 5.619750412997611 16.49470370253561 -1 0 0
48 2 0.2331317489507455 7.2830171004099595 6.083089653342142 16.44789401457794 -1 0 0
52 1 0.1779165358856235 5.427148943135646 6.644807331186645 17.444177584648685 -1 0 0
47 1 -0.1006286449692305 4.15416181078138 4.890269184422222 15.66184606154065 -1 0 0
46 1 0.1886571261054023 5.594876051197956 4.966484852821212 15.55250531938898 -1 0 0
183 2 0.2001393498567443 2.35262731247858 8.989572606533875 14.954229577763885 0 0 0
181 4 -0.423115798966836 5.118724720959893 8.50075401405078 14.591634716798332 0 0 0
177 1 -0.03653775948613898 6.865781733340573 7.307248867652072 13.183902325414028 0 0 0
55 4 -0.4167528064487486 6.128167341400768 7.736733416303375 18.286276088436125 -1 0 0
175 2 0.1777583615457531 9.038433620761808 6.723143306800855 13.208485047005224 0 0 0
206 2 0.1784574403516148 1.9940945563690622 6.058610168595502 20.88870981273325 1 1 0
205 1 0.2298056052562701 8.025970693528457 6.166302327433684 21.377738187403278 0 1 0
208 3 -0.5096881524422325 8.303101227406833 7.08640278851901 22.41506737673383 0 1 0
202 1 -0.1398034705394121 6.6958973090941845 5.702625026713987 21.096512244187895 0 1 0
69 2 0.1773483326829525 2.3577068427529873 8.5687526017639 21.957169017177932 0 0 0
203 2 0.1613676038462211 5.944787490135803 6.079436325138142 21.734872223442945 0 1 0
199 1 -0.04256125216989506 6.490342457628512 4.709218113722859 20.070096274577924 0 1 0
204 1 -0.1065781772522897 9.18669381172527 5.721201457939847 20.679342956607833 0 1 0
54 3 -0.4927599533798768 4.189883258163131 8.37745197160789 19.6518305481692 -1 0 0
57 1 0.413354847720756 5.358302478485927 8.412734459333889 19.429386453265753 -1 0 0
59 1 0.40769022379799 7.64465819358305 7.925094103614877 18.58634731566426 -1 0 0
61 1 -0.01022064855818905 7.749111409005491 8.882757908858352 19.79390134808382 -1 0 0
201 1 -0.04516613856695854 9.054390702378832 4.801157773838386 19.6203221676439 0 1 0
210 1 0.2600870816981063 8.726827405423375 6.664945857214505 23.57668498420329 0 1 0
76 1 -0.1044088203993461 3.631129059425336 8.684406449773295 23.633879397341136 0 0 0
74 2 0.1168707672964908 4.693437128486231 6.6257752584542455 25.157868261742188 0 0 0
218 1 -0.01570615722432655 9.02396859874575 5.627982363759313 26.2750419803381 0 1 0
222 2 0.13104651911607 9.548470462531242 7.1186246230311525 28.64729908075591 0 1 0
85 2 0.1289416821052825 6.321041284728018 6.759384340304489 25.786672328298685 0 0 0
79 1 -0.3024156590472781 5.574092995126421 7.3440039714107 25.1887616025344 0 0 0
89 1 -0.01188675797309851 4.570767863568717 8.790057679047397 27.01417749381022 0 0 0
214 1 -0.1256646592669456 9.220014971352038 7.041448085060214 25.94766115027513 0 1 0
82 2 0.1430557733918757 5.969579149707646 7.38194839065178 24.130337356508885 0 0 0
215 1 -0.1598737121132291 8.555905796045845 5.2441260675516155 23.898842607463212 0 1 0
209 1 -0.1586163347456171 9.172971002442683 7.543134069441878 24.6264516517921 0 1 0
225 1 0.01342636751000763 9.285240055055928 5.158142047596939 27.67243117907658 0 1 0
207 2 0.1385028478873344 9.310230653500906 8.604652723601037 24.580876094445983 0 1 0
219 1 -0.3045270193710242 1.928689628092651 6.259665633799089 28.473142425104353 1 1 0
211 2 0.1108193869189584 9.360638060225583 7.686341100354278 26.831490031663996 0 1 0
92 1 -0.1116590054552647 5.248441549304134 8.081024205176869 28.11047467945142 0 0 0
227 1 -0.01274937411833731 8.025915848916531 4.873329676650065 28.44691527301324 0 1 0
90 2 0.1203673241224038 6.183172153436802 7.593673430010529 27.929304630953645 0 0 0
213 2 0.1484350014443249 2.8321978062017372 6.495496282381651 27.811984058602878 1 1 0
87 1 0.02310628334510852 5.2101773410173955 8.825619379903914 25.668761686971273 0 0 0
221 1 -0.1267112746029807 8.804953234800035 4.699120655297396 25.161680491122976 0 1 0
73 2 0.1269030917003627 3.83890814721019 7.611932254697982 23.650910155358538 0 0 0
98 1 0.2815248612520209 3.4591290107974784 8.65244094340204 29.717109242829963 0 0 0
235 2 0.1465428684646891 6.470181861868993 5.538192796215884 31.512852070855633 0 1 0
107 1 -0.03030594802119807 2.355554987071276 6.282048950635138 33.729888310368075 0 0 0
101 1 0.2326851274760057 3.209211203957566 7.794745412889079 31.935804395589578 0 0 0
103 2 0.1550514829677388 9.363430689165963 7.1164814333764195 32.16002967715009 -1 0 0
102 1 -0.1561979518204704 4.489104651560293 7.602211505778735 32.52467578072254 0 0 0
231 1 -0.1145997649252906 7.7949096367001935 5.410051977466156 29.76778680145948 0 1 0
105 1 -0.06823981727294977 4.793177347437666 6.643808207964009 33.525820982616665 0 0 0
104 1 -0.1241912017744212 2.141595287704905 7.025174260256598 32.52896989645859 0 0 0
100 2 0.1386362714197755 5.320639447345635 8.167157306358227 32.13528682563988 0 0 0
96 2 0.1399049024749544 5.192328024411049 7.343881092019247 30.171317924269683 0 0 0
94 1 -0.1649734074627633 4.716587698967018 7.947094943580414 29.393316345598972 0 0 0
224 2 0.1671067422394987 2.3399405468397334 5.764411778154754 29.367508305744412 1 1 0
99 3 -0.5159879009894849 2.8448580920132787 8.65620526615729 30.842612059602104 0 0 0
229 2 0.1237089177467108 8.589456197164564 5.991060680512656 30.210762430313284 0 1 0
233 1 -0.173197551042736 6.617001388846053 5.096626938760148 30.535632095134304 0 1 0
106 2 0.171719298137567 5.85510472762874 6.596302413126808 33.92123465305532 0 0 0
108 1 -0.04031794785482083 3.7170774520181196 5.959073739751396 34.257974866984014 0 0 0
253 2 0.2432183369163691 4.342433455581784 7.967804807929278 37.688170951494804 0 0 0
109 1 0.3923945733346382 9.570347838014108 5.592632998067817 34.65490247117766 -1 0 0
257 1 0.1911597522885924 2.59196585986195 6.903486230469863 38.59020305390729 0 0 0
261 1 -0.1031010495325646 9.427419858862258 6.80208240992145 38.51341587611394 -1 0 0
256 1 -0.0995837290615138 9.303019242701737 8.352882212538516 36.66046174831168 -1 0 0
252 1 0.1863952440056839 2.483393072976489 8.49725489667426 36.67186133304237 0 0 0
258 1 -0.07702039345777055 8.623863530660827 7.557559825186701 37.65271395679567 -1 0 0
264 3 -0.4838441420730724 5.839349979228337 6.455368703777857 39.03503228561462 0 0 0
255 1 -0.1204543366565389 3.236409943978991 7.712474077716812 37.6618897569406 0 0 0
111 1 0.4100738231419148 3.690786559447946 5.071779876511083 35.49422823204823 0 0 0
259 2 0.2009812375452955 7.545794157808658 7.5648996608156605 37.76258989373099 -1 0 0
110 3 -0.4781598739047633 8.418658691504124 5.615018198293534 34.346400162399576 -1 0 0
265 1 0.4186016150648394 4.951268318935698 5.812299389396322 39.51607343380464 0 0 0
266 2 0.1918980330152006 8.919506701331189 6.185128101277936 39.280817295335694 -1 0 0
262 4 -0.4196900935523386 3.4035886086574885 5.933941300781598 39.43577525536038 0 0 0
116 2 0.2026747708002387 7.7783425841317895 4.904557435735605 36.66635081809273 -1 0 0
112 4 -0.4100660965775249 2.196706363413065 4.897634096336611 35.812907302864105 0 0 0
254 2 0.2207311124890473 8.726224420081724 8.971298628815934 35.996337029223 -1 0 0
132 1 -0.1269844346257619 3.1057491925443035 7.640130599034524 42.74211674456767 0 -1 0
137 3 -0.5057357369514669 4.351499294680619 6.135319009783396 44.156386666837975 0 -1 0
135 1 0.2404288235009209 4.33053636246057 7.148106527607217 43.192713599178205 0 -1 0
263 1 0.4092087560174412 2.8531212851567216 4.872491450405077 40.45429134250817 0 0 0
131 2 0.1615436444134697 2.2003839818262034 7.432992453642877 43.289896311331084 0 -1 0
268 1 -0.04831779245169872 5.244354206952939 4.767186371541112 40.55074065012441 0 0 0
134 2 0.188350441254897 6.493927420667411 8.722452391774185 40.970188099718584 0 -1 0
138 2 0.1535618675527838 6.508474626229779 6.939315969534661 42.75020688986814 0 -1 0
136 1 -0.1215385769331171 5.558816308106961 7.451490035615319 42.48812036978385 0 -1 0
133 1 -0.05007100192415927 5.579536492306584 8.41010162263212 41.4411406779278 0 -1 0
129 1 -0.03876535661904436 3.0533089282568264 8.557234630346242 41.615129187414354 0 -1 0
130 1 -0.03315679703607911 4.334084224270766 8.946590176119678 40.91964336887486 0 -1 0
260 3 -0.4860964980176406 9.980961480093075 4.707470149496336 40.75268949506792 -1 0 0
149 1 -0.3016448278173995 2.5305187346294007 11.86145924373291 5.0348766203241695 1 -1 0
145 1 -0.115223147740135 7.816089788006533 13.059692109679315 3.0109051421196544 0 -1 0
153 2 0.1272034002354763 2.3335395477202097 10.907766087260663 5.55496295525859 1 -1 0
142 2 0.1309040938294729 3.0008778197517216 11.647748293092508 4.010595400839396 1 -1 0
161 1 -0.1085256672245648 7.345060202521002 12.348224354894718 6.452227520062363 0 -1 0
150 1 -0.1173442196501165 8.137479038535496 10.692460252011998 3.807194652059342 0 -1 0
148 1 -0.007913756757994089 8.507468012141022 12.100107941587943 3.8733484615454 0 -1 0
154 2 0.1112149247952562 8.553243777378212 9.913898706135885 4.509549641518416 0 -1 0
159 2 0.1224463990934403 6.890789698665946 11.762724930467861 5.6455100971205265 0 -1 0
151 2 0.1074039139073961 3.3773418214198827 12.455955463054995 5.561469891865879 1 -1 0
19 2 0.1122949065344585 5.3382835461621045 10.191759976397275 6.514096737508892 0 -1 0
158 1 -0.01430771545041411 8.689947201219077 12.821366339856954 6.208374280997129 0 -1 0
5 2 0.1130491285663683 4.052468045553595 9.525334530451673 4.677804855062924 0 -1 0
155 1 0.01973911586617069 9.44113704520375 12.69777196662955 4.884228072861825 0 -1 0
14 1 -0.2964063977540195 5.7180797827418655 9.274751761114981 6.950953029483083 0 -1 0
9 2 0.1409735473269061 4.877730114141894 13.219690067556307 3.650681075935207 0 -2 0
147 2 0.1412661127979774 6.804177194572288 9.149382906263158 2.9325214498737373 0 -1 0
146 1 -0.1576706600975954 7.170813427784186 10.188061858116829 2.897796205334193 0 -1 0
163 1 -0.1646242798670873 6.616022592818021 12.47802175696535 7.6404913498007465 0 -1 0
18 2 0.1314317156495772 6.653285654390273 9.040388466229206 6.363506572809614 0 -1 0
31 2 0.1760080601529651 1.9031787240804643 9.538035795948655 11.554523176865796 0 -1 0
28 2 0.1442984721678207 2.134911686379061 10.900339790136378 9.832643533400537 0 -1 0
35 1 -0.1047739837801172 6.837875189155353 10.441295950426259 11.404402998544375 -1 -1 0
32 1 0.2577620203809401 8.078544704823035 9.94544514362488 10.882125653556855 -1 -1 0
33 1 -0.1541229827415534 9.250255037968575 10.09763888585345 11.739160129479105 -1 -1 0
24 1 -0.1108212341612168 3.323717581959628 9.670176428809755 8.512808536240957 0 -1 0
36 1 -0.062797627613254 9.315841053732619 10.958053653094211 12.86438236598989 -1 -1 0
38 1 -0.03028344210673204 6.857258934421327 11.275596294142588 12.574354641014576 -1 -1 0
34 2 0.1675564094526675 5.912409237292567 10.321870534888586 10.806543012118006 -1 -1 0
29 1 0.2621979847479262 9.163556152391305 9.33222749714741 8.892013379122021 -1 -1 0
30 3 -0.5202227058945512 8.021354883673466 9.580683821180894 9.571074612762896 -1 -1 0
22 2 0.1155003524461321 4.233354996891082 10.233234548838336 8.783564280689367 0 -1 0
26 1 -0.1609441798019408 2.1317311347700088 10.034976404489194 9.140288923488033 0 -1 0
6 2 0.1541162370328394 6.003176395355016 9.592490510149577 8.029291089185293 0 -1 0
165 2 0.1234470506619799 5.664612571527326 12.014802425942092 7.716169310484422 0 -1 0
167 1 0.2867304901824735 7.147837735071244 13.22251592014522 8.78350324882529 0 -1 0
190 1 0.1926481672455925 4.752253208307948 11.083466353750566 17.484616282389233 0 0 0
187 1 -0.1167597762723931 5.193525922382045 10.36326790545801 16.288825706167714 0 0 0
188 1 -0.06252348408560375 2.4873207746159975 10.209690895395836 16.776715479650782 0 0 0
42 1 0.4046665193688745 7.86647352401306 12.694541205911563 14.392403937403696 -1 -1 0
186 2 0.24909251692125 6.306105711656636 10.44026100513545 16.033544194376177 0 0 0
185 1 -0.1259745616384509 2.980242799406619 9.578547182247316 15.632161921000074 0 0 0
192 3 -0.4541976497215168 7.961125932010905 11.336385225786973 17.672142568183588 0 0 0
44 3 -0.4648212584228834 8.641423314050318 13.026705009521141 15.213427862202067 -1 -1 0
191 1 -0.1243465373591775 3.3730889061500458 10.914300949199747 17.695638726423624 0 0 0
43 4 -0.4102760304741528 6.308184258650412 12.742277180878663 14.580397689664608 -1 -1 0
189 2 0.2221848254143498 9.680590714584607 10.080779854404813 17.08220365263619 -1 0 0
37 2 0.1726954921868051 1.9880405159785701 11.08962405562276 13.428862766089145 0 -1 0
184 1 0.1867985008211385 4.408135885912124 9.485304397907177 15.462199065843093 0 0 0
39 1 -0.04710998203773935 8.143247528746357 11.717117830686748 13.225676091558828 -1 -1 0
40 1 0.3861564507924568 5.751049056362179 11.980863304128299 13.337295155180248 -1 -1 0
45 2 0.1946822284794029 3.6069850420276124 12.89899643851114 15.01509289910737 -1 -1 0
41 3 -0.4639128088542474 4.57206926667097 12.038661410053567 13.015306467249491 -1 -1 0
64 1 -0.1236995296425774 8.849982810716442 9.58411333515139 20.44330990588921 -1 0 0
68 2 0.1282720429587693 7.080636911207284 11.238670794101857 22.974515107392712 -1 0 0
62 2 0.1669837902864131 5.092117635177912 10.174958850809027 21.700714544669673 -1 0 0
197 1 0.4061934115936363 5.159467497682419 12.838418810478341 19.56480028807803 0 0 0
198 1 -0.03729178323887522 7.737266020197813 12.94405383361072 19.285449275233233 0 0 0
71 1 -0.1558980464572027 2.7820830238769405 9.271459009601953 22.638363385358698 0 0 0
72 1 0.2578546690323853 2.308690472194463 10.653777166324872 22.696338659963537 0 0 0
66 1 -0.1386966760528427 7.211678394476114 10.605025414021746 22.087024561406277 -1 0 0
70 3 -0.5200641252731654 9.514893702871241 11.246755928916961 22.13379785384238 -1 0 0
63 1 -0.06902548429647401 6.127814900598369 10.036002467588714 21.420819711268322 -1 0 0
67 1 0.268334005586326 8.5758186479924 10.458341864098237 21.57538941958911 -1 0 0
200 2 0.1677541854827953 9.950040216302286 13.104684727630712 19.005460548663905 0 0 0
193 4 -0.4290127871932645 5.623790300015644 11.913691407402409 18.33711642485309 0 0 0
216 2 0.1629945014425739 8.276268032531323 13.179133011600737 23.10009887729893 0 0 0
196 3 -0.4957506036014148 4.150838744935934 12.98385514786239 20.133961787667367 0 0 0
194 2 0.1816957902794669 2.983486487893037 11.350073554155339 18.570740434756615 0 0 0
60 1 -0.04847307350540737 6.381311051709002 9.145675249837936 20.281564866353037 -1 0 0
65 2 0.1815247586716752 9.859387703955218 9.543250820831995 20.062065785049082 -1 0 0
195 1 0.4129528405981825 7.196391900709491 11.895616201946982 18.384411142549666 0 0 0
91 2 0.1159875514068135 2.750400083062065 9.94530494478671 26.591600869741466 0 0 0
220 2 0.1250807974188164 2.8009907417784774 12.756011374122927 26.85109898034514 1 0 0
95 1 -0.153521224417221 2.818778513322108 9.442614314255994 28.651134195500664 0 0 0
93 1 -0.1317774741451975 3.3109176841036003 9.470295978184462 27.346940641846963 0 0 0
86 2 0.1088814963411634 6.432205615531318 10.569146013191265 25.89566590483872 0 0 0
212 2 0.1050788232639638 9.63750188765055 11.713740557188931 26.902393632371023 0 0 0
80 1 -0.02139207006111661 4.293118902304853 9.477541376118264 24.58975874435008 0 0 0
81 1 -0.314162677879688 6.614845023731082 9.508039990621874 25.690225468303137 0 0 0
88 2 0.09969495162186537 4.409850470579271 11.619449569257856 25.311747282243104 0 0 0
226 2 0.09965800251867071 8.639423809271147 12.253557960337744 25.28313442798944 0 0 0
83 1 -0.1306895792276399 3.9270922819290535 10.929388453711056 24.557990782922886 0 0 0
84 2 0.1324137088102607 7.171164207089292 9.407380528054105 24.71011558980708 0 0 0
217 1 -0.2985149508652878 1.9032046200502355 12.534985345199871 27.451957758193593 1 0 0
230 1 -0.1247676764663114 6.9483273972405994 12.704584506127333 27.96288546999508 0 0 0
234 2 0.140110127929603 5.115630806584958 11.631469797011142 28.30410911739701 0 0 0
232 1 -0.1524629145187453 5.810580155705294 12.318297137657886 28.74244080480481 0 0 0
228 2 0.09943657530558825 7.057521209975066 12.262244166222953 26.967386491799385 0 0 0
223 2 0.1423156388205997 2.262854244542223 12.003532283820611 28.35128702107044 1 0 0
77 1 -0.1409631355521944 2.9814120261669856 11.45339693895612 23.676436818764675 0 0 0
97 2 0.1313711653983925 1.8875598448657736 9.965708135541593 28.827224042284623 0 0 0
75 2 0.1184617888772407 7.230462731603316 9.045492903521215 26.479227762926968 0 0 0
78 2 0.1458116717123283 2.721510218893077 12.569466737600894 23.744946446514927 0 0 0
239 1 0.2704135295819274 4.53008460826257 11.925948627188658 31.713914502072964 0 0 0
240 1 -0.1592357500719578 5.83797656490175 11.440958617287272 32.22921330477128 0 0 0
241 2 0.1796580081171214 2.392624413748852 11.661898219096203 31.882577373194735 0 0 0
246 1 -0.03187824320731796 4.818793179864817 10.425395223425294 34.24059139961193 0 0 0
238 2 0.1499381973934468 6.682516922443582 11.715817628974815 31.605765317505394 0 0 0
242 1 -0.1013305458880122 3.358495599109845 11.446583827676442 32.413578771735416 0 0 0
245 1 -0.02814911908924411 3.4902677416039163 10.744558976192245 33.62079179798283 0 0 0
243 1 -0.0661531278275726 5.993867055214877 10.821317787502423 33.471161212800666 0 0 0
236 1 0.2373581798932733 5.608848391947324 12.908080038190192 30.020997899667993 0 0 0
237 3 -0.5076114290790159 4.385626130250646 12.64361706949315 30.625966060211034 0 0 0
244 2 0.1882106921977309 6.990212577208934 10.596722711010418 33.80742599491926 0 0 0
120 1 -0.07514050792284982 7.780665571749354 12.029813423528473 38.130540125491635 -1 -1 0
249 1 0.4116116786940952 4.755636478930683 9.579004166716413 35.521616976492275 0 0 0
121 2 0.1920054374515114 6.685698343357029 12.135869742356736 38.476525274632586 -1 -1 0
118 1 -0.1015837144138325 8.420253137018136 12.810188789568507 37.115662221305364 -1 -1 0
114 1 0.1961728416767875 9.811780837957393 12.690874004939428 36.85146012970762 -1 -1 0
123 1 -0.1080301400249356 8.550377657473248 11.123743624551553 38.88096736957204 -1 -1 0
250 4 -0.4319416576817588 3.1477417942472377 9.27840562589483 35.61851653276428 0 0 0
119 1 0.1906223067313684 9.974961034980748 10.972431812955412 38.726316276720226 -1 -1 0
126 3 -0.4494507030857461 4.934607034695066 10.37230833399607 39.12959550787639 0 -1 0
115 2 0.2359261150176199 3.2694263601219955 11.573960094669747 37.417769083704634 0 -1 0
117 1 -0.1355631384740406 2.244782499098296 11.723433482725351 37.665064743783155 0 -1 0
251 3 -0.4578898723083992 5.674078362543966 9.25456631932425 36.15623571499633 0 0 0
247 1 0.4287721429211132 2.4019253805142813 10.066314996656336 34.51346383665049 0 0 0
248 3 -0.4844816614881108 9.510030647775551 10.26082854498225 34.474120506636964 -1 0 0
113 3 -0.4283796456024266 4.588270253101678 13.288142092045014 36.13816282093303 0 -1 0
276 2 0.1705161174751537 7.527393249603196 11.462682268154229 42.13159491081317 0 -1 0
140 1 -0.1452834528689724 6.926421981815358 12.531026794070725 44.682491769947994 0 -1 -1
141 1 0.2452407886369092 6.569532448602302 11.094996248875262 44.577545194772426 0 -1 -1
274 1 -0.1493586011249669 6.553592440390458 11.88361688840626 41.92570900656124 0 -1 0
122 3 -0.4929071217751768 9.026610513537406 9.109243183484555 41.18317908982223 -1 -1 0
273 1 0.2564964228689589 5.366104879046429 11.423597008692724 42.670423701312814 0 -1 0
269 2 0.1775366596888062 3.163244570014059 11.58295700852399 42.772118650697074 0 -1 0
270 1 -0.1120699212130027 4.066327882421379 11.89382522020762 42.284795139279254 0 -1 0
275 3 -0.5069726306995096 5.517683617540726 10.725025496677738 43.83093073069438 0 -1 0
125 1 0.4002886357507895 1.9270783654917265 9.314356361253804 40.89961130084399 0 -1 0
271 1 -0.08678951023829169 6.561023453664744 12.943215954317147 40.960917646288664 0 -1 0
267 1 -0.02458924745651012 4.027332990471416 12.861289013631232 41.19627998755894 0 -1 0
272 2 0.1688660230278155 7.440331309714327 13.240461224879372 40.392797585451426 0 -1 0
139 2 0.1731243989643874 6.349253176295895 13.246464974931541 44.000793708538296 0 -1 -1
127 1 0.3934616589426556 4.047859573463626 9.976285165004093 39.81270859048575 0 -1 0
124 4 -0.4294487073695309 2.4757950991998667 10.13601892893405 39.737269641651764 0 -1 0
128 2 0.1906142324172493 8.016385919807576 10.636521074608439 39.67068902569188 -1 -1 0

Velocities

8 0.0025296835632547666 0.0008034865411166352 -0.010245722118066495
12 0.0011376288448693259 -0.004855079803355121 0.004153969261319027
2 0.00022293070244279155 0.002057179823824899 -0.008042995096334236
144 0.021572794455994554 0.02167484436100033 -0.005230513430281811
10 0.003620593460835022 -0.0027251943871246 -0.010198303538965293
3 -0.00021137414933306215 0.005308006497424348 0.0045562654379956834
17 0.0002988571956516075 0.0034075254164730854 0.010586891162735505
21 -0.02000655919868439 -0.01645928941379848 -0.00512548366253256
16 -0.0008599582616862914 0.014091552853267202 0.014133574997789031
15 -0.011905281425362926 -0.0003201738729544236 0.025853612441062428
23 0.003554697022911228 -0.0022494806503902056 -0.006994596393452515
156 0.023925089024256222 0.007957379999831987 0.001129158659901111
143 0.00257796449928348 -0.001771644179959545 0.013491598831890427
20 0.003763041530663343 0.005550476875653666 0.002772593649588669
7 -0.0011306917136854418 -0.0011765147659070602 -0.0007368813617144896
152 -0.004485189275209498 0.00043007100208109134 0.0012439399260184487
157 -0.00779301483208991 -0.01028567117199668 -0.035747224649306436
160 0.009281130838460553 0.01931133230743369 0.007719720712219678
162 -0.010721671469673616 0.0066244285643332415 0.004892411471007439
1 0.006321886241536465 -0.005339946369392979 -0.032115302851315336
176 0.0034192327890111593 0.009370452753808212 -0.007655694026417505
4 0.014598657023498426 -0.0065983302914461245 -0.020558250967380343
169 -0.011611943084200452 0.001362859716542509 -0.004574828666008638
173 0.0023196590551685828 0.000452728498390956 0.004767661438941753
174 0.000699369986471904 -0.005593290697490763 0.005450510363464033
164 0.006686215235577224 0.005966191339016823 -0.006626336539580962
11 0.003028897456316929 -0.0063060055436273375 0.009208110451112018
171 -0.006501105513483878 0.0038235059910190043 0.013773231308840369
25 -0.008514190449111452 0.00017240735505748674 0.008168965129628288
170 0.003914998820728729 -0.005079270116548799 -0.002981216948571454
172 0.011212948787712685 0.008403203502275377 0.017063904738064448
168 -0.010024426062211817 -0.0014577724384348756 -0.006192705514948542
166 -0.00569668673298029 -0.0044135277388660295 0.005388546688266524
13 -0.012879299773134654 7.933245158778078e-05 0.014884808349263763
27 0.006531722697047274 0.009416619467362681 -0.00847012025534254
179 0.007479567502996517 -0.006883848622744454 -0.002040634637482303
58 0.0038298564364025772 0.0035272408021428388 -0.0002601709442337092
49 -0.0037250138391215844 0.0013179167520101305 0.005265273487499081
50 0.0017228630018233215 -0.002070747741303767 -0.00259068308195745
56 0.012705065113073392 0.0018195781920014083 -0.012335962894340054
180 0.0009224481169916708 0.003433287626346193 0.0017427626473696866
178 -0.0032545228107784745 -0.0026016113319912216 0.007840485057443596
53 -0.007406932046290805 0.0077962862867174704 -0.0001812762645282461
182 -0.0029950578810022397 -0.0045458693034811605 -0.0036946268685355004
51 -0.001727836929318419 0.022160629153970383 0.0033980229025336547
48 0.02165025092435403 -0.018511930922786867 -0.004853192952059768
52 -0.0002018430887356935 -0.006596983989657673 -0.0003345573971478232
47 -0.0029378566345850134 -0.005189927260760067 0.0053459422453496705
46 -0.006634296690430031 -0.007691484874154849 -0.002202049362554998
183 -0.012529224620139015 -0.0077229447785675 0.010711539913424505
181 -0.0016991822248805864 -0.004851703759296321 0.002455197236913021
177 -0.005882941249547948 0.0011960042822576108 0.0034118394481295845
55 0.0001780302829229048 0.0057790023067052386 -0.0025599509811886282
175 -0.007643161465239653 -0.010286243712764695 -0.011039057679793827
206 -0.021928563297833898 0.019058836954747655 -0.014217227151819473
205 -0.0030213537997073104 0.00018552762567471847 0.0011029950684588764
208 0.00242215781294695 -0.007012283368734526 -0.004604211362595156
202 -0.007589244057435706 0.003327237088839696 -0.00013027482064605273
69 0.01742170074903192 -0.004278426535444197 -0.031299910119194536
203 0.005239108316740746 0.003979435902348934 0.013569839607994518
199 -0.0014339295468350551 0.005050692880518509 -0.007075883503673914
204 0.0016324785306164674 0.006785486931221669 -0.0037038530478309467
54 -0.0014736844736110996 0.004856990060621791 -0.004340073331436925
57 -0.0050097619731677675 -0.0003119709535836316 -0.003055595026001284
59 0.004453286631895261 0.001319606832490129 0.0007177458078723479
61 0.0020692840239704665 0.003242292625991477 0.0027437846277413125
201 0.0013830219468311045 0.002426932781656578 -0.004224404231011341
210 -0.007234145220677476 -0.002406477415124295 -0.0002978338218018445
76 0.0014155552248506502 -0.0005600617025161736 -0.004344163373049015
74 -0.007060356301883621 0.01806564348519304 0.00848239795428915
218 -0.0009415797847928998 -0.009512586784892921 0.002593339437452487
222 -0.007413022579619458 0.017939839533127437 0.007540521354765303
85 -0.00020052490401137955 0.019352521291526252 0.0018469904378491124
79 0.0019338884900661035 0.0018378598023163924 -0.001797598730441687
89 0.007568194138952428 -0.0018625956560222327 -0.00392676121654858
214 0.008403969827821172 0.0031908781670562086 -0.004504964697254661
82 -0.019125062955006895 0.024732201437500517 0.007751113467597466
215 0.0024552755156470886 0.005397162404937465 -0.0011459033595128353
209 -0.004511783629975253 -0.0004947056755361111 -0.0005391266339924485
225 -0.003549291059783659 -0.002910886501571297 -0.0017350007835111123
207 0.006246150790720349 -0.012379011577957325 -0.005983074347193885
219 -0.0009729600728816165 -0.0016398773374254418 0.00030904408302973415
211 0.01983826824285168 -0.011208435323137351 -0.005964164044595639