 LAMMPS data file, charge style generated xyz_lammps.py by Wenchang Lu 

276 atoms
4 atom types

0.000000   12.000000   xlo xhi 
0.000000   18.000000   ylo yhi 
0.000000   47.297921   zlo zhi 
0.000000   0.000000   0.000000  xy xz yz 

Masses

4  14.006700
1  12.010700
2  1.007940
3  15.999000

Atoms # charge

1 2 0.0 1.154857 0.018621 0.955011 
2 1 0.0 1.488831 -0.989895 1.204921 
3 1 0.0 1.206755 -2.129600 0.354714 
4 2 0.0 4.905934 -4.260325 3.632983 
5 2 0.0 2.604605 -0.290104 2.946247 
6 2 0.0 5.697394 -1.942492 3.125354 
7 1 0.0 2.337878 -1.144913 2.301354 
8 1 0.0 1.730969 -3.427404 0.675842 
9 2 0.0 1.488970 -4.316288 0.044781 
10 1 0.0 2.937957 -2.442465 2.612023 
11 1 0.0 4.175352 -3.881321 4.380928 
12 1 0.0 2.598642 -3.600109 1.797537 
13 2 0.0 4.674149 -3.890953 5.422921 
14 1 0.0 4.957651 -1.493469 3.848088 
15 2 0.0 3.328309 -4.663906 4.507877 
16 2 0.0 3.000873 -4.520764 2.133898 
17 1 0.0 3.666117 -2.439704 3.944506 
18 2 0.0 4.669677 -0.515772 3.550830 
19 2 0.0 5.529820 -1.410732 4.830662 
20 1 0.0 2.707473 -2.018585 5.032046 
21 2 0.0 1.284166 -3.660731 4.460790 
22 2 0.0 3.732977 -0.153541 5.744165 
23 1 0.0 1.488708 -2.787829 5.130632 
24 1 0.0 2.866796 -0.848212 5.891393 
25 1 0.0 0.491013 -2.485969 6.115968 
26 1 0.0 1.864471 -0.476848 6.789113 
27 2 0.0 -0.365959 -3.154685 6.212422 
28 2 0.0 1.949895 0.424312 7.350108 
29 1 0.0 0.627476 -1.239897 6.875258 
30 3 0.0 -0.304604 -0.861918 7.817374 
31 2 0.0 1.769915 -2.244064 8.772974 
32 1 0.0 -0.325131 -1.578123 8.932889 
33 1 0.0 0.926241 -2.254824 9.390840 
34 2 0.0 -2.419637 -1.100043 9.432173 
35 1 0.0 -1.509279 -1.687007 9.745857 
36 1 0.0 0.998749 -2.903428 10.650619 
37 2 0.0 1.941433 -3.337864 10.956247 
38 1 0.0 -1.480949 -2.396078 10.983171 
39 1 0.0 -0.187871 -3.010295 11.510837 
40 1 0.0 -2.588821 -2.696262 11.991268 
41 3 0.0 -3.690825 -2.313075 11.834675 
42 1 0.0 -0.434121 -3.663723 12.817989 
43 4 0.0 -1.937645 -3.399905 13.237608 
44 3 0.0 0.340653 -4.258940 13.499604 
45 2 0.0 -4.482826 -3.400102 14.129772 
46 1 0.0 -2.410782 -3.399068 14.648097 
47 1 0.0 -3.811167 -3.473006 14.965255 
48 2 0.0 -0.470190 -3.410004 15.570200 
49 1 0.0 -1.533043 -3.533468 15.757568 
50 1 0.0 -4.291518 -3.809305 16.235916 
51 2 0.0 -5.368167 -3.941299 16.430266 
52 1 0.0 -1.928624 -3.841566 17.106782 
53 1 0.0 -3.336515 -3.996768 17.295398 
54 3 0.0 0.800041 -2.347042 17.142703 
55 4 0.0 -0.897566 -3.871807 18.178405 
56 2 0.0 -3.705291 -4.338071 18.292023 
57 1 0.0 0.276886 -2.815692 18.121631 
58 3 0.0 -2.076503 -4.737985 20.144869 
59 1 0.0 -1.362429 -3.895306 19.687299 
60 1 0.0 0.482320 -2.241286 19.526162 
61 1 0.0 -0.539042 -2.916132 20.460607 
62 2 0.0 2.164643 -0.859717 19.354389 
63 1 0.0 1.398381 -1.275541 20.032645 
64 1 0.0 -0.754589 -2.326722 21.759528 
65 2 0.0 -1.570982 -2.696573 22.335499 
66 1 0.0 1.158927 -0.804174 21.384587 
67 1 0.0 0.103668 -1.280143 22.234050 
68 2 0.0 1.858669 -0.012371 21.848972 
69 2 0.0 0.625460 1.731801 22.472818 
70 3 0.0 -0.174415 -0.867247 23.501630 
71 1 0.0 0.915179 1.403420 23.455908 
72 1 0.0 0.291249 0.228374 24.084531 
73 2 0.0 2.169160 3.171345 23.759842 
74 2 0.0 4.413902 1.003851 26.466709 
75 2 0.0 4.380739 3.347309 25.001805 
76 1 0.0 1.773669 2.212450 24.180243 
77 1 0.0 0.484452 -0.021842 25.517553 
78 2 0.0 -0.021508 -0.830444 25.990185 
79 1 0.0 3.925021 1.668847 27.216398 
80 1 0.0 2.023740 1.919914 25.588701 
81 1 0.0 3.676805 3.794803 25.725221 
82 2 0.0 4.726927 2.164492 27.784662 
83 1 0.0 1.329976 0.818953 26.256631 
84 2 0.0 3.055318 4.506741 25.079168 
85 2 0.0 3.415883 1.016383 28.004211 
86 2 0.0 4.301970 4.435116 26.430498 
87 1 0.0 2.888045 2.684166 26.519255 
88 2 0.0 1.534340 0.641279 27.328425 
89 1 0.0 2.110980 3.382817 27.606502 
90 2 0.0 0.087124 2.906739 26.702890 
91 2 0.0 3.855198 4.006491 28.728039 
92 1 0.0 0.643042 3.278467 27.598185 
93 1 0.0 2.750896 3.988800 28.752633 
94 1 0.0 -0.056987 3.622226 28.756603 
95 1 0.0 2.023987 4.350030 29.908270 
96 2 0.0 -1.157946 3.465388 28.711434 
97 2 0.0 2.578615 4.737985 30.775929 
98 1 0.0 0.599308 4.098412 29.967600 
99 3 0.0 -0.200525 4.378366 31.008642 
100 2 0.0 1.951504 3.056204 32.083886 
101 1 0.0 -0.066982 3.863140 32.239493 
102 1 0.0 1.099842 3.134416 32.757336 
103 2 0.0 -2.068954 4.639611 32.766848 
104 1 0.0 -1.230741 4.011551 33.065862 
105 1 0.0 1.026390 2.514328 33.990022 
106 2 0.0 1.906129 1.952149 34.371100 
107 1 0.0 -1.334223 3.355243 34.352011 
108 1 0.0 -0.118534 2.701075 34.887027 
109 1 0.0 -2.379361 3.327453 35.511873 
110 3 0.0 -3.520412 3.624813 35.382333 
111 1 0.0 -0.367936 2.202756 36.334589 
112 4 0.0 -1.766430 2.644831 36.802064 
113 3 0.0 0.268382 1.342010 36.810835 
114 1 0.0 -2.527433 2.000930 37.923298 
115 2 0.0 -0.841547 1.937732 39.179714 
116 2 0.0 -4.424212 1.924822 37.006424 
117 1 0.0 -1.877143 1.662539 39.154892 
118 1 0.0 -3.945570 1.717180 37.940065 
119 1 0.0 -2.465358 1.101640 40.319015 
120 1 0.0 -4.604807 1.219666 39.080138 
121 2 0.0 -5.697394 1.037339 39.048536 
122 3 0.0 -3.299751 -0.560190 42.966351 
123 1 0.0 -3.887735 0.869985 40.266797 
124 4 0.0 -1.683876 0.755786 41.572773 
125 1 0.0 -2.199511 -0.135652 42.736474 
126 3 0.0 0.451538 1.967011 41.529883 
127 1 0.0 -0.255705 1.157170 42.054139 
128 2 0.0 -4.447253 0.429367 41.065684 
129 1 0.0 -1.066112 -0.402453 43.743104 
130 1 0.0 0.080072 0.513877 43.407539 
131 2 0.0 -1.695844 -2.070287 45.049438 
132 1 0.0 -0.910846 -1.330168 44.814672 
133 1 0.0 1.211900 0.605801 44.304709 
134 2 0.0 2.089907 1.224447 44.076323 
135 1 0.0 0.266052 -1.217330 45.633124 
136 1 0.0 1.336692 -0.251881 45.381303 
137 3 0.0 0.448219 -2.210479 46.525090 
138 2 0.0 2.253653 -0.293970 45.978535 
139 2 0.0 7.154857 9.018621 0.955011 
140 1 0.0 7.488831 8.010105 1.204921 
141 1 0.0 7.206755 6.870400 0.354714 
142 2 0.0 10.905935 4.739675 3.632983 
143 2 0.0 8.604605 8.709896 2.946247 
144 2 0.0 11.697394 7.057508 3.125354 
145 1 0.0 8.337878 7.855087 2.301354 
146 1 0.0 7.730969 5.572596 0.675842 
147 2 0.0 7.488970 4.683712 0.044781 
148 1 0.0 8.937957 6.557535 2.612023 
149 1 0.0 10.175352 5.118679 4.380928 
150 1 0.0 8.598641 5.399891 1.797537 
151 2 0.0 10.674149 5.109047 5.422921 
152 1 0.0 10.957652 7.506531 3.848088 
153 2 0.0 9.328309 4.336094 4.507877 
154 2 0.0 9.000874 4.479236 2.133898 
155 1 0.0 9.666117 6.560296 3.944506 
156 2 0.0 10.669677 8.484228 3.550830 
157 2 0.0 11.529820 7.589268 4.830662 
158 1 0.0 8.707473 6.981415 5.032046 
159 2 0.0 7.284166 5.339269 4.460790 
160 2 0.0 9.732978 8.846459 5.744165 
161 1 0.0 7.488708 6.212171 5.130632 
162 1 0.0 8.866796 8.151788 5.891393 
163 1 0.0 6.491013 6.514031 6.115968 
164 1 0.0 7.864471 8.523152 6.789113 
165 2 0.0 5.634042 5.845315 6.212422 
166 2 0.0 7.949895 9.424312 7.350108 
167 1 0.0 6.627476 7.760103 6.875258 
168 3 0.0 5.695396 8.138082 7.817374 
169 2 0.0 7.769915 6.755936 8.772974 
170 1 0.0 5.674869 7.421877 8.932889 
171 1 0.0 6.926241 6.745176 9.390840 
172 2 0.0 3.580363 7.899957 9.432173 
173 1 0.0 4.490721 7.312993 9.745857 
174 1 0.0 6.998748 6.096572 10.650619 
175 2 0.0 7.941433 5.662136 10.956247 
176 1 0.0 4.519051 6.603922 10.983171 
177 1 0.0 5.812129 5.989705 11.510837 
178 1 0.0 3.411179 6.303738 11.991268 
179 3 0.0 2.309175 6.686925 11.834675 
180 1 0.0 5.565879 5.336277 12.817989 
181 4 0.0 4.062355 5.600095 13.237608 
182 3 0.0 6.340654 4.741060 13.499604 
183 2 0.0 1.517174 5.599898 14.129772 
184 1 0.0 3.589218 5.600932 14.648097 
185 1 0.0 2.188833 5.526994 14.965255 
186 2 0.0 5.529810 5.589996 15.570200 
187 1 0.0 4.466957 5.466532 15.757568 
188 1 0.0 1.708482 5.190695 16.235916 
189 2 0.0 0.631833 5.058701 16.430266 
190 1 0.0 4.071376 5.158434 17.106782 
191 1 0.0 2.663485 5.003232 17.295398 
192 3 0.0 6.800041 6.652958 17.142703 
193 4 0.0 5.102434 5.128193 18.178405 
194 2 0.0 2.294709 4.661929 18.292023 
195 1 0.0 6.276886 6.184308 18.121631 
196 3 0.0 3.923497 4.262015 20.144869 
197 1 0.0 4.637571 5.104694 19.687299 
198 1 0.0 6.482321 6.758714 19.526162 
199 1 0.0 5.460959 6.083868 20.460607 
200 2 0.0 8.164644 8.140283 19.354389 
201 1 0.0 7.398381 7.724459 20.032645 
202 1 0.0 5.245411 6.673278 21.759528 
203 2 0.0 4.429018 6.303427 22.335499 
204 1 0.0 7.158927 8.195826 21.384587 
205 1 0.0 6.103668 7.719857 22.234050 
206 2 0.0 7.858669 8.987629 21.848972 
207 2 0.0 6.625460 10.731801 22.472818 
208 3 0.0 5.825585 8.132753 23.501630 
209 1 0.0 6.915179 10.403420 23.455908 
210 1 0.0 6.291249 9.228374 24.084531 
211 2 0.0 8.169159 12.171345 23.759842 
212 2 0.0 10.413902 10.003851 26.466709 
213 2 0.0 10.380740 12.347309 25.001805 
214 1 0.0 7.773669 11.212450 24.180243 
215 1 0.0 6.484452 8.978158 25.517553 
216 2 0.0 5.978492 8.169556 25.990185 
217 1 0.0 9.925021 10.668847 27.216398 
218 1 0.0 8.023740 10.919914 25.588701 
219 1 0.0 9.676806 12.794803 25.725221 
220 2 0.0 10.726927 11.164492 27.784662 
221 1 0.0 7.329976 9.818953 26.256631 
222 2 0.0 9.055318 13.506741 25.079168 
223 2 0.0 9.415883 10.016383 28.004211 
224 2 0.0 10.301970 13.435116 26.430498 
225 1 0.0 8.888044 11.684166 26.519255 
226 2 0.0 7.534340 9.641279 27.328425 
227 1 0.0 8.110979 12.382817 27.606502 
228 2 0.0 6.087124 11.906739 26.702890 
229 2 0.0 9.855197 13.006491 28.728039 
230 1 0.0 6.643042 12.278467 27.598185 
231 1 0.0 8.750896 12.988800 28.752633 
232 1 0.0 5.943013 12.622226 28.756603 
233 1 0.0 8.023988 13.350030 29.908270 
234 2 0.0 4.842054 12.465388 28.711434 
235 2 0.0 8.578615 13.737985 30.775929 
236 1 0.0 6.599308 13.098412 29.967600 
237 3 0.0 5.799475 13.378366 31.008642 
238 2 0.0 7.951504 12.056204 32.083886 
239 1 0.0 5.933018 12.863140 32.239493 
240 1 0.0 7.099842 12.134416 32.757336 
241 2 0.0 3.931046 13.639611 32.766848 
242 1 0.0 4.769260 13.011551 33.065862 
243 1 0.0 7.026390 11.514328 33.990022 
244 2 0.0 7.906129 10.952149 34.371100 
245 1 0.0 4.665777 12.355243 34.352011 
246 1 0.0 5.881467 11.701075 34.887027 
247 1 0.0 3.620639 12.327453 35.511873 
248 3 0.0 2.479588 12.624813 35.382333 
249 1 0.0 5.632065 11.202756 36.334589 
250 4 0.0 4.233570 11.644831 36.802064 
251 3 0.0 6.268382 10.342010 36.810835 
252 1 0.0 3.472567 11.000930 37.923298 
253 2 0.0 5.158454 10.937732 39.179714 
254 2 0.0 1.575788 10.924822 37.006424 
255 1 0.0 4.122858 10.662539 39.154892 
256 1 0.0 2.054430 10.717180 37.940065 
257 1 0.0 3.534642 10.101640 40.319015 
258 1 0.0 1.395193 10.219666 39.080138 
259 2 0.0 0.302606 10.037339 39.048536 
260 3 0.0 2.700249 8.439810 42.966351 
261 1 0.0 2.112265 9.869985 40.266797 
262 4 0.0 4.316123 9.755786 41.572773 
263 1 0.0 3.800489 8.864348 42.736474 
264 3 0.0 6.451538 10.967011 41.529883 
265 1 0.0 5.744295 10.157170 42.054139 
266 2 0.0 1.552747 9.429367 41.065684 
267 1 0.0 4.933889 8.597547 43.743104 
268 1 0.0 6.080072 9.513877 43.407539 
269 2 0.0 4.304156 6.929713 45.049438 
270 1 0.0 5.089154 7.669832 44.814672 
271 1 0.0 7.211900 9.605801 44.304709 
272 2 0.0 8.089907 10.224447 44.076323 
273 1 0.0 6.266052 7.782670 45.633124 
274 1 0.0 7.336692 8.748119 45.381303 
275 3 0.0 6.448220 6.789521 46.525090 
276 2 0.0 8.253653 8.706030 45.978535 
