LAMMPS data file via write_data, version 29 Aug 2024, timestep = 500000, units = real

2436 atoms
4 atom types

10.214041112458867 25.78595888754255 xlo xhi
32.289493583904814 67.71050641610098 ylo yhi
-1.8807327273590424 47.870732727358146 zlo zhi
0 0 0 xy xz yz

Masses

1 12.0107
2 1.00794
3 15.999
4 14.0067

Atoms # charge

127 1 0.3805319671360197 13.069802519176193 33.9834900341755 2.4070465105176906 0 0 1
289 3 -0.4888222970857252 16.676848856530988 38.86605241137454 0.8954183565033307 0 0 0
400 1 -0.02528320650604116 12.629812390683256 37.3068587452029 1.1816720065310857 1 0 0
407 2 0.1793605745483293 14.627652472568167 36.91193662846703 2.134135765571992 1 0 0
399 1 -0.06456573883731917 13.610081131626991 37.30956485789192 2.239184325430525 1 0 0
266 2 0.2194321843060252 16.25796889968693 34.82104870442037 0.7386193578644868 0 0 1
403 1 0.4130628505190165 12.831214659382017 36.87916460278902 -0.31081241822211925 1 0 0
411 3 -0.4972384108571009 13.850093018159377 36.354851558933866 -0.6183642965636174 1 0 0
404 4 -0.4445576909969629 11.562220239020625 37.14780759678123 -1.1478665613559018 1 0 0
261 1 -0.08680132849588562 16.634925366527522 34.52297164258692 -0.24151785998205 0 0 1
398 1 -0.09573356356203491 13.110099637813065 37.72001354727277 3.480949248168245 1 0 0
124 4 -0.4128204520808911 11.40962776026721 34.26938541377983 2.4885309875765786 0 0 1
397 1 0.01804443890876317 11.721765714909015 38.234638751920166 3.605790174095734 1 0 0
134 2 0.1676522015485455 15.736498338286907 33.68331308262798 3.8173837967933784 0 0 1
115 2 0.2349357547516381 11.746976579306219 33.15914364474099 0.06785127550164338 0 0 1
126 3 -0.4455536986718012 13.718775808223457 33.55699491329155 1.5124177420639886 0 0 1
260 3 -0.4874679979075521 17.51884811287798 35.389662936768104 2.5737965667250196 0 0 1
402 1 -0.05061172981957586 11.219276868861222 37.795928971949074 1.2240276844036773 1 0 0
130 1 -0.04089772751609057 13.540824497245978 34.22083847052332 3.847544967352663 0 0 1
125 1 0.4180650151325553 11.12230374631966 34.83114615339783 3.8273207162378604 0 0 1
259 2 0.2241688034200683 14.616841005204222 34.025223257013934 -0.8613303286473193 0 0 1
288 2 0.1469185925202458 17.336850760782575 38.78370704849616 3.7384430138143294 0 0 0
739 2 0.2098048124144223 15.216225507011952 40.7946094960825 0.23291868044390496 1 0 1
706 1 -0.1103364022718371 14.168515473784774 40.91345673812075 0.5621341214910647 1 0 1
728 1 0.259173773538372 13.124353073831049 40.75024641395703 -0.4633546049677486 1 0 1
258 1 -0.05413471943014758 15.64834822933746 33.976719787188806 -1.1445906862371307 0 0 1
401 1 -0.0921861709765105 10.832483823809085 38.33574171921739 2.482118005969504 1 0 0
117 1 -0.1365852050018169 10.800723381846776 33.72599265481375 0.04679286951024886 0 0 1
119 1 0.1913051639633902 10.501493995485744 34.36346614115648 1.3126131713183558 0 0 1
377 2 0.2226351961220212 15.943740668852222 37.97451556987461 -0.9615160271587561 0 0 1
729 3 -0.487805451580777 13.469563660836695 40.549430119473264 -1.7453200704674938 1 0 1
410 1 0.3771157412456059 10.503199353705417 37.774597777043034 -0.12431604534606722 1 0 0
752 1 -0.1509179263052203 11.758665900093707 40.955173772218444 -0.08250053057992601 1 0 1
754 2 0.168394378935721 10.934394590307399 40.81225015554194 -0.7691637661607067 1 0 1
393 1 -0.09117267800726693 16.572129331135383 37.54510420731537 -1.7288785187254068 0 0 1
395 1 0.1760922029572259 17.953591757050987 37.40798311810021 -1.5112699555261342 0 0 1
290 1 0.4091009824126429 17.74180835756883 38.30545276714072 0.9458361518375411 0 0 0
255 1 -0.1359913114680622 18.363260693922555 33.91545121081798 -1.8127369827603348 0 0 1
615 1 0.2583919641744634 20.815775500686307 41.076288690912165 -1.3495831332962083 0 0 1
122 3 -0.4966558409985772 25.6048476376319 35.12175544119022 4.242065191997631 -1 0 1
257 1 0.1949448505606885 18.049454541245545 34.455287899481675 -0.5078145400422023 0 0 1
284 4 -0.4058252661476262 18.602839739862347 37.7510578881202 -0.17982590774272178 0 0 0
263 1 0.3998147823933793 18.571730908454654 35.11147373998742 2.0909746008894663 0 0 1
114 1 0.191125728201837 25.674559086483377 33.78631214618371 -1.2053987585358883 -1 0 1
281 1 -0.09642550092878192 18.38175113241993 38.506291007012535 3.5305981890465983 0 0 0
408 2 0.1408356041210592 25.434546716436998 38.81150167685038 2.5989259471716286 0 0 0
282 1 -0.03585386692454977 18.7118784801318 38.2571221383034 2.16672852616224 0 0 0
123 1 -0.120857962384974 24.912822687936995 35.19451441267306 1.2710134298798086 -1 0 1
262 4 -0.4125537391142536 18.997112774030562 34.8114158079135 0.6301162388976849 0 0 1
264 3 -0.4622083927667409 21.16943057493103 33.97386700163115 -0.109610767399549 0 0 1
409 3 -0.4531268735020235 24.918148794569845 38.06229621667525 -0.2547347210289639 0 0 0
128 2 0.1668607160965831 24.541335513990127 35.82219607549555 2.1142921388253892 -1 0 1
120 1 -0.05089069028655531 24.135598285119173 35.25366901087122 0.042496629409817466 -1 0 1
121 2 0.2082003113720075 23.254400381402277 35.86839757699813 -0.0028843389656303398 -1 0 1
280 1 -0.03541225789486128 20.1175713854917 37.86681191823764 1.7530745309739464 0 0 0
283 1 0.3948436872024822 20.16467547144423 37.61749251051179 0.22575941816157696 0 0 0
268 1 -0.06201068150037838 20.999957919006746 34.60330954676573 2.137914990694582 0 0 1
265 1 0.4415865020402049 20.494664131005052 34.40248878994004 0.7095027108205771 0 0 1
271 1 -0.07770630954711621 22.19501001113511 34.120811430956586 2.8068977202111496 0 0 1
267 1 -0.05222814080446966 19.82288098348002 35.02244085947872 2.9724776711746053 0 0 1
272 2 0.1664972164528858 23.020635961988418 33.6623663744029 2.190227123608299 0 0 1
287 2 0.1429286849502415 22.092026384531923 37.47399916133617 2.4739403089735763 0 0 0
279 1 -0.07901191170956076 21.091434283016973 37.746822539618336 2.7759875837911867 0 0 0
118 1 -0.09492539646830504 24.54095824757116 34.67890497864333 -1.2183928534853785 -1 0 1
278 1 -0.1067320159118653 20.769160089811045 37.84742688995604 4.163820703477395 0 0 0
291 3 -0.446445479291645 21.16761887955678 37.281576562174976 -0.34481369254187744 0 0 0
274 1 -0.1714222057105294 22.254341536416327 34.234537768084145 4.230115914275989 0 0 1
609 3 -0.4729227852106958 21.755438388629457 41.02092193656131 -0.39661800680515347 0 0 1
421 2 0.1241358052059033 24.662395869317102 38.95868651431375 4.316236171761866 0 0 0
634 2 0.1734445241010779 19.073200153862 40.92395036025997 0.7474901867129216 0 0 1
406 2 0.1356227584607852 13.766358361764624 37.69207973245506 4.358667111339624 1 0 0
133 1 -0.07245972124597758 14.911990085431432 34.0626577721291 4.362373744472934 0 0 1
129 1 -0.05321961831674157 12.450499079141908 34.858240260558084 4.653127245876082 0 0 1
295 1 -0.04156910214204516 17.97657122272242 38.879100132754594 8.71330140300878 0 0 0
9 2 0.1440497021055255 15.628532055759427 33.20821977754349 7.815027006566506 0 0 0
412 1 0.01236602251530017 11.219962939446633 38.565074016867605 4.964585859883684 1 0 0
419 4 -0.4534176555000436 11.328350207000803 39.288630012735105 9.735127097444844 1 0 0
136 1 -0.1715492626716635 15.153033387214574 34.54485592574011 5.71141085386421 0 0 1
132 1 -0.1315901341300271 12.760030138732526 35.25939857742398 5.961430301361214 0 0 1
138 2 0.1298562963819093 16.17648451559024 34.4208080329734 6.217925998278023 0 0 1
135 1 0.2521509346148825 14.124075107786958 35.139111063097616 6.512789684192473 0 0 1
423 2 0.1508210048626374 13.189464698360345 38.3672402121404 5.968968226473653 1 0 0
416 1 -0.09529469247156823 12.143936286892211 38.61013796740974 6.062665302647576 1 0 0
3 1 0.2444469169253984 15.315670445384406 35.17211925710718 8.567246711144634 0 0 0
424 3 -0.4948012665722201 13.59995781459219 39.04954514074067 8.838752443747623 1 0 0
425 1 0.3903209949415379 12.412188400364021 39.045432378994434 8.626444470778058 1 0 0
417 1 -0.05727549004537578 11.60719283622485 38.88463286572535 7.352678000550526 1 0 0
137 3 -0.5107596575619126 14.20884152503697 35.469024374500464 7.81003233919837 0 0 1
8 1 -0.1662494052743822 15.953764032175808 33.893673927256216 8.520674806557812 0 0 0
302 2 0.1699059672928573 15.994577061723838 39.23191381145432 7.758731553779382 0 0 0
301 2 0.1423713489025096 16.856892681614454 38.914116414303834 5.54912020300045 0 0 0
2 1 -0.1226039742547216 15.655795475296165 36.17020213335071 9.602329760599119 0 0 0
131 2 0.1578920141430799 11.974600048208346 35.67310622835951 6.580331052549727 0 0 1
12 1 -0.09150125491850485 16.95295985797326 33.573566724509796 9.502774757919818 0 0 0
1 2 0.1981936563294653 15.209291526490702 37.16786139299618 9.63250122813351 0 0 0
144 2 0.1476821507455133 11.373618925201143 35.726872627368216 8.975257292990358 1 0 0
294 1 -0.07294138606141864 17.06882055497137 39.03716142645683 7.612322868691033 0 0 0
152 1 -0.2983398617816452 10.690358347796069 36.1105502858229 9.771571519343148 1 0 0
10 1 -0.01195999251901551 17.421673334857076 34.59272866617182 10.405861470181133 0 0 0
151 2 0.1361413298961443 10.94982416418667 33.18740558054688 9.418952523381892 1 0 0
293 1 -0.08923701739766601 17.59500459662711 38.83178566174298 6.292110645611599 0 0 0
149 1 -0.3058296236804954 10.503506556522437 33.60310897773921 10.342761674900077 1 0 0
16 2 0.1363923720162548 17.44142248621123 32.60235906592956 9.566819808500005 0 0 0
298 1 0.4015146066444096 17.836317134748487 38.994944773152724 10.237596150059982 0 0 0
7 1 -0.1055628717624375 16.72034461540619 35.86142896651794 10.498676570850145 0 0 0
159 2 0.1839957873398826 23.42120784638878 36.75331559398104 10.448517771182022 0 0 0
270 1 -0.1302252269923954 19.928952173154222 35.08572365728582 4.391264473327652 0 0 1
139 2 0.1483526057254829 23.33116687590565 35.895702019012745 5.870313891992495 0 0 0
296 1 -0.06763217054961061 19.87199809191557 38.33258017557624 7.0278928733837525 0 0 0
275 3 -0.5074064968269349 20.991307394187388 34.527471816636165 6.395050156919732 0 0 1
147 2 0.1702619983823754 21.474836379734565 32.74307595119338 8.38225839975593 0 0 0
154 2 0.1357638631076528 23.007873778232227 33.287195536808625 10.183893773334638 0 0 0
148 1 -0.00797773089794267 24.231403772023945 34.83207833351142 9.079545811117754 0 0 0
156 2 0.161349583791011 25.68129520732438 36.97966246048587 9.44132438512824 0 0 0
145 1 -0.09347272797595763 24.268908971034264 35.49711318763795 7.794588072310562 0 0 0
297 1 -0.03067330930743367 19.40720951685491 38.58694833238464 8.351592924644024 0 0 0
415 1 -0.04388096793162924 25.72639495475426 39.07952970419856 7.557436532258201 0 0 0
13 2 0.1406505448067592 19.915239724435743 33.22069068801101 10.161276910365698 0 0 0
304 3 -0.4543450073705825 21.37123546777834 38.35456371252137 9.713316795510096 0 0 0
418 1 0.3747130015550068 25.474308694069734 39.38686708824032 9.06715976755618 0 0 0
6 2 0.1723940288125606 19.608269056030522 35.95408213242379 10.506396436181909 0 0 0
141 1 0.2519095879593552 22.16172022883628 34.411455082630795 7.034216984191769 0 0 0
273 1 0.2297167633008826 21.125432538013172 34.626222473759235 5.048545381553653 0 0 1
277 1 0.01143569541944635 19.424017241255953 38.3395247628188 4.54150931925286 0 0 0
150 1 -0.09279435792942536 23.14061628523988 33.892503581320774 9.248401347721709 0 0 0
305 1 0.3877751620489441 20.194386970486192 38.54678623851759 9.698547427350956 0 0 0
414 1 -0.0853931668369393 24.778687737711433 39.111546396276935 6.455452655771017 0 0 0
286 2 0.1238593435739079 21.54693706051544 37.5483131863811 4.847747922495839 0 0 0
276 2 0.1628921819550589 23.124711814278626 33.766954338693544 4.707289857944037 0 0 1
413 1 -0.09825076443249164 25.36440617551622 38.88843132695361 5.178220522814764 0 0 0
146 1 -0.1292928387933092 22.202486514926296 33.542716031138646 8.21724864397549 0 0 0
303 2 0.1561650202027079 20.982615109407924 38.10896039726465 6.851805824577905 0 0 0
269 2 0.1712322695667991 19.097271497440815 35.44967142489433 4.93890614756884 0 0 1
155 1 0.01115777493549999 25.212260937718447 34.94151127224224 10.164812916827135 0 0 0
292 1 0.008867709617884476 18.953549673851107 38.50440457611734 5.96648224192619 0 0 0
420 3 -0.4502748898449819 24.40813537636413 39.419580152388164 9.59795152558027 0 0 0
422 2 0.1855737121781388 23.77192006529397 39.50066250623148 6.565000407187881 0 0 0
140 1 -0.1436004889884752 23.252848451872822 35.29908953953457 6.808187211610274 0 0 0
143 2 0.1350916393645126 25.12620831227357 36.09998331363988 7.545179806178318 0 0 0
447 2 0.1594836321418758 14.038556724413851 37.519172704601644 13.340488772925639 1 0 0
26 1 -0.1323543605567536 15.708714997731132 34.38560601186778 14.103936452281708 0 0 0
446 1 -0.1289615557357504 12.995191927554444 37.874949426802765 13.021016212649586 1 0 0
29 1 0.2611060410184944 16.378504509238617 34.583582876377875 15.4027380146942 0 0 0
444 1 -0.121278566391393 12.81863684980595 38.480207803851386 11.746203766282866 1 0 0
24 1 -0.1031061776847885 16.398207646078745 34.313589031194155 12.869116599641657 0 0 0
28 2 0.1694785621836223 14.659507139428914 34.39911025649536 14.116484329385807 0 0 0
22 2 0.1588790629317219 15.841622114449677 34.25886988300293 11.928844785678105 0 0 0
450 2 0.197717146926315 11.555732617034277 40.347100288930235 15.090079714160137 1 0 0
448 1 0.2532124547936395 11.946025506599467 37.950888695417476 14.02039921241392 1 0 0
443 3 -0.5104740490288125 12.148707718176475 37.564732467696935 15.30911228196609 1 0 0
429 1 -0.1408400833546354 11.43980130926608 39.81356522230273 16.070045787877312 1 0 0
430 1 0.2659288602964316 11.873053266060294 38.411701015915796 16.278823399959894 1 0 0
30 3 -0.5318140753693656 15.55044925454845 34.93417624555279 16.398573947657326 0 0 0
439 1 -0.146106997134103 10.716629980299444 38.49903022981845 13.500709656530367 1 0 0
442 1 0.1554901602764048 11.620327736568614 38.95413026419186 11.168389205860244 1 0 0
445 2 0.1977754078787324 13.646290361005509 38.597134802222605 11.054771786128352 1 0 0
440 1 -0.09281300765347875 10.5309395501594 38.87327159461759 12.140662779494024 1 0 0
2329 3 -0.5100593673243096 13.294756994756105 32.321555317036804 12.67712297891858 1 1 0
5 2 0.1567718046840332 17.021584935311214 36.55424699459397 11.29378286536979 0 0 0
300 3 -0.4980069361986495 16.756481721684974 39.007768064219285 10.695128581323518 0 0 0
337 2 0.1825348141111345 17.535128307699182 39.50873261604258 12.939162030489715 0 0 0
160 2 0.1298789692831561 10.224268850014091 33.93631896214044 12.877508765603995 1 0 0
308 2 0.1864004524698334 16.675542143252105 37.124476342609896 16.715454097141713 0 0 0
157 2 0.15588441896272 11.32143876801275 36.44783344684845 10.631046899811562 1 0 0
2328 2 0.143259470537225 13.821432062107991 32.46869927941963 15.513221072688449 1 1 0
20 1 -0.01127932161613349 17.87788362884231 34.31743448186341 12.85853348200006 0 0 0
25 1 -0.1731173864850613 17.841736594650833 34.50215501073511 15.359801639879901 0 0 0
153 2 0.1433095267673673 11.258764096616405 33.71020499207247 11.16608568301445 1 0 0
438 2 0.1607477123655542 25.394931891563928 38.494180181751936 14.08919467133704 0 0 0
11 1 -0.3067273559287995 19.40816684921545 33.20385274309798 11.15559399914427 0 0 0
318 2 0.1905250372059024 18.065810304233448 39.97904584178124 15.342936051493204 0 0 0
27 2 0.1359590201508684 18.429315176762195 34.48961623004257 16.247930166708034 0 0 0
23 1 -0.1201827868948736 18.58996977627747 34.37174839982377 14.130875203264814 0 0 0
17 1 0.01397520860281984 18.504877449389962 34.43868411698126 11.512239779031967 0 0 0
457 2 0.1919407354374271 25.05619454891778 39.129640963142855 11.918627461462778 0 0 0
329 2 0.1401988554288619 18.853201435352585 37.621858477379405 15.583215916723901 0 0 0
320 1 -0.1195102182051043 18.63201082519793 39.558988872253394 13.219660670162906 0 0 0
319 1 -0.132498122202692 18.89192945590711 39.80039617028192 14.608846183443113 0 0 0
21 2 0.1252067429657916 19.639344658519455 34.33583766803204 14.19717391124906 0 0 0
166 2 0.1421445330552643 24.55048347842763 34.668039984560295 14.994871359497836 0 0 0
165 2 0.166590385822972 22.1384231558642 37.33328470369722 12.471044646882623 0 0 0
322 1 0.1525804529304999 19.63496770505036 39.248986513151465 12.258116626660811 0 0 0
326 1 -0.1165058178054445 21.307560416914612 39.74149315826695 14.054926616146034 0 0 0
324 1 -0.1336944053220772 20.97147192669067 39.51400649247743 12.680883258588457 0 0 0
168 3 -0.5216873103300946 22.347366954026263 36.15996709993048 14.81963685863101 0 0 0
167 1 0.2566773359332336 23.225719303304302 35.94659376393725 13.853622523911257 0 0 0
163 1 -0.1477807614972899 22.847724911496762 36.57789090471331 12.565914083870844 0 0 0
158 1 -0.01513324273372836 24.63964076302864 35.25772994488263 11.516751963204772 0 0 0
164 1 -0.1629190064682229 24.375764477735103 35.077243882012226 13.96063875660128 0 0 0
162 1 -0.1160872102982269 25.055756159258898 34.67708078756165 12.794900816405681 0 0 0
161 1 -0.1007189710713202 23.521501831583826 36.246003531009926 11.414112683372336 0 0 0
327 2 0.1715801612414032 22.36067217731503 39.71567417369118 14.40752187556458 0 0 0
328 1 0.2576342927078549 20.241270645921226 39.77476652819832 15.059326426608848 0 0 0
19 2 0.1410923310651121 20.489436848390234 35.32869527096072 11.912604346213794 0 0 0
323 3 -0.4974988457644747 20.524441571465964 39.65695113246295 16.375207924684638 0 0 0
325 2 0.1831521437176591 21.750474032442572 39.43870781545828 11.989764362576546 0 0 0
311 1 -0.1593535955819265 18.612650039395163 38.11504726573015 16.57760322809812 0 0 0
170 1 0.2603885441102876 22.653727406073394 36.11963159577034 16.16187949607815 0 0 0
169 2 0.1477527015934541 24.896021975830504 36.21311946559047 16.103202128098463 0 0 0
18 2 0.1542678827374336 19.08672899905427 36.40295827840945 12.16365697420433 0 0 0
14 1 -0.3037237641144607 19.510979803221943 35.62652038491735 11.552283083739693 0 0 0
299 4 -0.4813391003288408 19.230696595932258 38.739273711651364 10.893126749942727 0 0 0
15 2 0.1236652754082115 20.19967214027704 33.15278377115489 11.89514613508602 0 0 0
172 2 0.164336901680057 20.48175784649726 35.96700461807336 16.663937653029837 0 0 0
142 2 0.1424664031027144 25.3627196604575 32.83975733744514 10.736843006989812 0 0 0
171 1 -0.165822023326355 23.985675289699323 36.11267309985346 16.688111999119744 0 0 0
434 1 -0.1374317131963234 10.698565319815312 40.49526894914535 16.999933781530213 1 0 0
2341 2 0.1477245196446255 12.959519395881058 32.409012543592404 17.230716678020993 1 1 0
312 1 -0.1120064040253356 17.37308587275548 37.794013009928754 17.206126269519746 0 0 0
44 3 -0.4416878230755449 15.999346314658023 33.720408280104735 22.77746133445067 0 0 0
331 1 -0.1112329525052868 15.571048715522714 38.065497200448135 22.53850704567188 0 0 0
45 2 0.2144326309686569 11.192500502573582 35.79366764275539 22.56232449285327 0 0 0
449 2 0.1621978977503028 12.138201487784855 36.8229406416247 17.80367263190149 1 0 0
431 1 -0.1275043941529312 11.688541725484196 37.87003643160131 17.62662751420841 1 0 0
32 1 0.2666631437115399 15.787221898491385 34.74349458993241 17.703016981773814 0 0 0
306 1 -0.1605774439701693 16.098938977657994 38.01269317971472 21.243618961092523 0 0 0
42 1 0.3786046830058639 15.270362675758 34.12868925168341 21.936740913058387 0 0 0
33 1 -0.1443016879171683 16.851137334416205 34.06620393298055 18.39553588729784 0 0 0
34 2 0.1805261515546568 13.956154382920767 35.926724463295606 17.77554280443706 0 0 0
35 1 -0.09403931430831657 14.647366416872316 35.303887757427276 18.376233144805795 0 0 0
38 1 -0.05001688297833037 14.462505548592702 35.1038894831073 19.775156028165192 0 0 0
336 1 -0.1364296750734942 14.015861970062907 38.8565671111898 20.346666161638744 0 0 0
316 2 0.1667916096384627 13.308093965895964 39.13609203091593 19.598956365555914 0 0 0
40 1 0.4147954009379782 13.409785527609879 35.40632765813741 20.827138832894217 0 0 0
41 3 -0.4818181384618002 12.412695023269887 36.03373023527369 20.659179563941407 0 0 0
39 1 -0.05376560339689987 15.56245905952543 34.29648311888323 20.46692213169337 0 0 0
285 1 0.2648978850092333 15.378764100023062 38.472118507227265 20.05570092392868 0 0 0
317 3 -0.5019877103685119 15.766513539282728 38.34758906350204 18.807056830866394 0 0 0
36 1 -0.05710989689349451 16.763349597958996 33.897303323008146 19.80945791784346 0 0 0
43 4 -0.409415339811729 13.771766660187225 34.768185130440365 22.151433087203078 0 0 0
334 1 -0.08945560652779916 13.50394191782378 38.85138472280895 21.678342556611938 0 0 0
321 2 0.1731280808596218 12.422504238781812 39.087225573740454 21.718651207701996 0 0 0
332 1 0.1766765443879419 14.282829793878776 38.58917117764433 22.8585751415419 0 0 0
432 1 -0.1620215231953835 10.913831473867138 38.50340911778364 18.588324004703647 1 0 0
313 1 0.2571796915340999 17.091276460515353 38.366537161898535 18.468620323379273 0 0 0
396 2 0.1528975084576021 17.10082130418398 37.594078626416916 21.061256022979993 0 0 0
2342 2 0.1863233072604873 11.956946341399842 32.41305189071572 19.455443754201433 1 1 0
428 2 0.1646489639094667 10.660711636736332 38.030614912425634 19.578752461122107 1 0 0
37 2 0.1792319490658607 17.592312036348684 33.40904544301134 20.373905340559233 0 0 0
516 2 0.1668084578187476 10.436901487093214 39.98060159036546 21.337300054563727 1 0 0
31 2 0.1568143774994543 17.712180505967716 33.650097319071094 17.927497713451952 0 0 0
575 2 0.1621964527714583 16.533512836890665 40.67510968704128 22.512208591182606 0 0 0
433 1 0.274614296011906 10.395866292749746 39.83578939713447 18.288804037548203 1 0 0
178 1 0.4065540033964287 20.58938521465244 35.67888998554375 19.467088528984146 0 0 0
2218 1 0.3950791769466182 21.515206931364563 32.47666104133223 18.925154200741712 0 1 0
330 2 0.1513680428160194 20.11788083138493 40.14645306982641 18.957281745632045 0 0 0
2244 1 -0.0797478533826103 24.290355975884808 32.318447429834706 21.81036567582994 0 1 0
335 2 0.1417576112191657 18.00217438350792 39.578930704642325 20.190603032342487 0 0 0
2217 1 -0.03742873785948955 23.361852851116016 32.46091587015526 17.2638116613015 0 1 0
2215 1 -0.04183170461209812 21.876546571846003 32.3877408621763 17.439867439841194 0 1 0
2220 3 -0.4672406758802945 20.388489115287815 32.454161487258894 19.36030957884307 0 1 0
181 4 -0.4232100440922801 21.435508819119093 35.616028330332156 20.82784086447056 0 0 0
426 1 -0.1366733966273319 24.97017524296096 39.7237222269726 21.317649603824353 0 0 0
437 3 -0.5293254252660291 24.913520286416986 40.30348577876092 18.84288450193896 0 0 0
454 1 -0.0987508853729418 22.32001750706622 38.960845495550515 21.28886603776333 0 0 0
2219 4 -0.4271123455517049 22.891452633668823 32.52083838249487 19.668513771144884 0 1 0
177 1 -0.04429595282516385 23.103933621797978 35.8802739790807 19.0235530217276 0 0 0
2245 2 0.2035115899057999 25.266206896957627 32.472652941909665 21.27236709753753 0 1 0
176 1 -0.03884906901173074 21.702625673339803 35.862768482286064 18.393730083961906 0 0 0
310 1 0.2542645391590034 19.60645968772529 38.997682420022 17.120348497788097 0 0 0
2224 3 -0.4882776273605305 25.18325389091504 33.120591130346384 18.692046772377285 0 1 0
2225 1 0.4139269105633737 24.076495980644424 32.746954302078784 18.631793381407682 0 1 0
436 2 0.1590371038072368 22.407994933114427 39.24340606139927 19.124961921591755 0 0 0
183 2 0.1792607434650735 18.60953293836972 35.57982730945573 21.474506301512072 0 0 0
452 1 0.1863265621771192 22.97474477430259 38.96508386326468 22.57020495427581 0 0 0
184 1 0.1829240445912428 20.711461587234716 35.555708296152076 22.136148814829305 0 0 0
173 1 -0.1162608183065141 21.512261604303024 35.89808116763887 17.003486344405825 0 0 0
179 3 -0.4761870647548656 19.427972627409357 35.82368983959511 19.264875958556527 0 0 0
314 1 -0.142884887403404 18.11252075852148 39.16084814631084 19.130595722345905 0 0 0
180 1 0.4136653896160082 22.93421799174113 35.729666093210085 20.511619622950384 0 0 0
175 2 0.1755968896682619 25.16463518135903 35.833364887846926 18.474191814710768 0 0 0
174 1 -0.06526301378047691 24.179959594539234 35.989835804002155 18.09758855414254 0 0 0
441 2 0.1906881215986037 21.24916313831517 38.62677605724005 21.367432872437117 0 0 0
405 1 0.2107312389177329 24.302475116705274 39.77698979387943 20.069294124192812 0 0 0
456 1 -0.1372562777028444 22.935641586143255 39.403339607281524 20.06831016890238 0 0 0
309 1 -0.1202039428428637 19.34339206917341 39.45441086141629 18.48371689800809 0 0 0
185 1 -0.1270711590425591 19.314318519219363 35.598818616193846 22.279812762336483 0 0 0
451 1 -0.0816847605171645 24.392792280385244 39.18673592138304 22.53121704330895 0 0 0
182 3 -0.4317183519398273 23.84968337616681 35.728594934371614 21.304053461311764 0 0 0
350 3 -0.4655590558024819 15.295462587871448 37.98347797986338 25.823710283925266 0 0 0
351 1 0.4217163076465898 14.197509864317894 38.3583846938638 25.556306225440988 0 0 0
343 1 -0.05343732158869914 13.196673607510656 38.70177059101459 26.610049261914067 0 0 0
57 1 0.3867428506182016 14.731254294747204 33.48382901459156 27.463274683699503 0 0 0
55 4 -0.4225395682749549 13.812886613698216 34.74815964263089 27.310103958075462 0 0 0
341 1 -0.05909548708802669 11.935692559967976 39.36118648089983 26.042100131273966 0 0 0
52 1 0.1738269829068392 13.160823817416658 35.06196909150338 25.988246847772555 0 0 0
53 1 -0.1204215051149966 11.875210070341607 35.71736360865584 25.999418814389525 0 0 0
49 1 -0.1274775770653244 13.683028630869268 34.692015575872226 24.70353282662598 0 0 0
48 2 0.2457560131373748 14.668046912817882 34.23238542672123 24.88542658336892 0 0 0
59 1 0.3798942427517019 13.070483194222508 34.903486415578776 28.65788403691509 0 0 0
342 1 -0.07250003325919127 13.23264607637261 38.47757444848831 28.054790278837764 0 0 0
349 2 0.1529517321772916 14.180746590828193 38.043466493310056 28.558480172365112 0 0 0
54 3 -0.4298831309405671 15.469255703176971 33.008899609885724 26.644019055689583 0 0 0
338 1 0.02128531019391336 12.07770524284648 38.84433203415908 28.835732851180463 0 0 0
344 1 0.3760336747372488 12.198739862088157 39.43373827713862 24.55415403152639 0 0 0
345 4 -0.4290713463920341 13.599135796652625 38.68310325276586 24.213975967781728 0 0 0
340 1 -0.07386099300277665 10.813190894949944 39.731292325322464 26.871598552228907 0 0 0
56 2 0.1943616177012678 11.40794300819565 36.01172342253075 26.90200405488542 0 0 0
50 1 -0.06212138793274548 11.25349134061941 36.00543311947456 24.75927140519791 0 0 0
467 2 0.1411887889687641 17.84942845990025 38.47951036345708 27.77282851678239 0 0 0
339 1 -0.1068659676631591 10.908035607461986 39.465771511393314 28.290247445811275 0 0 0
58 3 -0.4777689407947611 12.179982131613354 35.624276132580526 28.995069540570647 0 0 0
189 2 0.1607807617652283 17.6364270798967 35.73632801611666 23.650751587570397 0 0 0
60 1 -0.05197181742401829 14.579998923733495 32.983253773120936 28.875811734714194 0 0 0
352 3 -0.4685637005822889 11.503657425937611 40.05574186836003 23.814637946236708 0 0 0
333 2 0.1729282515034035 16.150059198547535 37.68965086052389 23.43135008937419 0 0 0
47 1 -0.09965603655369254 11.770862661111268 35.619233463903264 23.50516033942902 0 0 0
51 2 0.2032405137569783 10.307015933852558 36.517111800456945 24.809008385259943 0 0 0
46 1 0.1979599505081618 13.079297304756285 34.996737609330914 23.445691707282695 0 0 0
468 2 0.175065156751629 17.98311589717727 38.82922497925284 25.468839827086413 0 0 0
200 2 0.1523690326396329 25.586570620748482 34.09463259732315 27.605000969830503 0 0 0
348 2 0.184005712324089 25.54961514068024 40.29813064764325 26.543313707369684 -1 0 0
347 2 0.1682094282260618 25.68664249630809 39.79245479816034 28.900522670371682 -1 0 0
188 1 -0.08746409211232559 18.718100344641478 35.69813309572065 23.592224245761884 0 0 0
201 1 -0.0805302167126319 24.643284316786115 34.15080574574469 28.176142819152787 0 0 0
459 1 -0.09511403015204843 18.84990331793921 38.576987382562976 27.409510092138003 0 0 0
460 1 -0.08042070161793674 18.91769154886413 38.66527741576902 25.984191477277456 0 0 0
194 2 0.1962650437049101 18.93939786094555 35.83539002149841 25.718767601388127 0 0 0
191 1 -0.1038253819820822 19.49838015533743 35.70651142720776 24.760006970679893 0 0 0
470 3 -0.4601145283731015 23.814580794599742 38.75232411359813 25.646441634237654 0 0 0
190 1 0.1737255070970999 20.943881567693015 35.58692276003737 24.695660580123125 0 0 0
193 4 -0.435802353880314 21.708375048227502 35.367127303668255 25.97112581208233 0 0 0
197 1 0.3889438933825499 21.114424092543622 35.176550896987884 27.43449671625741 0 0 0
461 1 -0.03998970290348237 20.216321385554302 38.74704776886276 25.325912481787466 0 0 0
471 1 0.4143430239450855 22.67324314489663 38.74704323577775 25.26526688813751 0 0 0
463 1 -0.0350454791546726 21.466871544094644 38.74195721774012 26.16533004971621 0 0 0
464 1 0.379490171524794 20.56916181502715 38.98763324229892 23.86738951553785 0 0 0
465 4 -0.4283068761485893 22.18495078724292 38.79400011825406 23.80249974295235 0 0 0
462 1 -0.07450576763646261 21.388384643534742 38.63702936653719 27.5964272546333 0 0 0
196 3 -0.4575211611432278 19.964888421395898 35.31117741511422 27.75052912704151 0 0 0
195 1 0.4195825256568216 23.20795143577 35.075740080976956 26.07846539346633 0 0 0
192 3 -0.47303629956534 24.08812840751805 35.19115211572101 25.299283008486558 0 0 0
198 1 -0.04282060830125009 23.46337523607957 34.58778926464895 27.53663897459391 0 0 0
199 1 -0.03513734830644152 22.195567671319544 34.60459997561846 28.337942388182 0 0 0
469 2 0.1505244172121024 22.317029591288595 38.563743687005655 28.209683660345803 0 0 0
458 1 0.01907887392739388 20.058049660403825 38.60525224230597 28.2520267845816 0 0 0
187 1 -0.1399669945397004 21.472167182225515 35.50415238361596 23.376108334962343 0 0 0
186 2 0.2389705700974723 22.55338563997571 35.4133365045361 23.383613754959722 0 0 0
2249 2 0.1644647717052252 20.946422562755384 32.807926608857166 25.28138261516081 0 1 0
453 2 0.2201275331871617 24.92309331208307 39.03058988072643 23.49313167076642 0 0 0