LAMMPS data file via write_data, version 29 Aug 2024, timestep = 49, units = real

276 atoms
4 atom types

1.8694536506024981 10.130546349398081 xlo xhi
4.667032335282555 13.33296766471626 ylo yhi
2.337066690863729 44.96085430913293 zlo zhi
0 0 0 xy xz yz

Masses

1 12.0107
2 1.00794
3 15.999
4 14.0067

Atoms # charge

8 1 -0.1571372709064465 4.681969058622551 5.679872988552439 3.8838828266366936 0 -1 0
12 1 -0.1369594715348768 4.744450634906428 6.138012435718934 5.207020985369843 0 -1 0
2 1 -0.1676368598001175 4.157572082432115 7.999323558465958 3.126537118919942 0 -1 0
144 2 0.1463586067850071 1.9580286376175686 5.4903094707734965 3.3766457563953916 1 0 0
10 1 -0.02127284453235999 4.5331160470318075 7.539786988510604 5.550286694521005 0 -1 0
3 1 0.2525732158138724 4.394992638763617 6.60269844209511 2.7891831165414684 0 -1 0
17 1 0.009157541016159381 4.6739633029762295 8.092194395679948 6.9286481996159175 0 -1 0
21 2 0.1094782950479163 2.1071925357321124 7.1510478768707495 6.4978505563934075 0 -1 0
16 2 0.1090503948034828 4.963066695787991 5.408620049290817 5.98977720403622 0 -1 0
15 2 0.1385391652498365 6.279422002162225 6.565809927657215 7.367955086961118 0 -1 0
23 1 -0.122470915969858 2.1343196539185527 7.93115086530226 7.255856985768049 0 -1 0
156 2 0.1179635346164354 9.178158097870426 6.249122860080344 4.649231591253468 0 0 0
143 2 0.1218022273734354 8.037261785963645 5.411414608797706 2.9926142460505347 0 0 0
20 1 -0.01398585725582714 3.4033169597118187 8.573227125834118 7.55746522683491 0 -1 0
7 1 -0.1201992028396432 4.225309009862986 8.449936880957964 4.455089401275474 0 -1 0
152 1 -0.309212590111715 9.932717906339915 5.4547209275894275 4.453041102122118 0 0 0
157 2 0.1324442116128375 2.577853665526407 5.7460745874600505 5.02058347475179 1 0 0
160 2 0.1088743087450808 2.006676949309349 5.288289560655953 7.332775519715298 1 0 0
162 1 -0.1116704609976264 9.257521655956877 4.880435094993426 7.402186297474585 0 0 0
176 1 -0.04604878507991494 5.522881458623157 7.037825689496715 12.576822549118642 0 0 0
4 2 0.1611357706105377 5.651034714108985 7.367769429690906 8.840133651483058 0 -1 0
169 2 0.1442598619855966 8.75959636884393 5.247614729521893 11.192967911310655 0 0 0
173 1 -0.1202961966762656 5.420527739708544 6.183807006629665 11.44309751205296 0 0 0
174 1 -0.05709742266206244 8.019402138973376 6.6142860998485355 12.672608898329443 0 0 0
164 1 -0.1685412472336905 8.546976828074389 5.100342638521605 8.584940166027202 0 0 0
11 1 -0.2957414860815336 5.356633789308821 6.962983298933491 7.848399607558723 0 -1 0
171 1 -0.1532857304358681 7.8744320942499515 5.776280631457528 11.549674084033397 0 0 0
25 1 -0.1504960955779481 9.210131340387884 8.251327870767966 7.94894602130471 -1 -1 0
170 1 0.265230488766568 6.600269560354057 5.577133514076242 10.881555183892036 0 0 0
172 2 0.1675367455514363 4.440801677730623 5.997367690632971 10.995012151407403 0 0 0
168 3 -0.5326886439450634 6.3590792906159015 4.857081222684963 9.761198361959043 0 0 0
166 2 0.1356176020635177 9.016432107261142 5.688311092759151 9.36739195192514 0 0 0
13 2 0.1346982213872074 4.672763582629601 6.103761201688661 8.021471374504596 0 -1 0
27 2 0.1369922953091559 8.300597641461149 7.683371662668045 7.741056554019097 -1 -1 0
58 3 -0.4548288056937847 8.599511863638055 7.540660249910287 17.97638543998424 -1 0 0
49 1 -0.1321740829884092 6.170901493843747 5.870914278295435 16.473486315532462 -1 0 0
50 1 -0.08262100116632605 3.3718941794636614 5.675448567870365 16.516330427858186 -1 0 0
56 2 0.2126838514453883 3.4166751436822813 7.161354793246318 18.074346349821564 -1 0 0
180 1 0.3988234906417207 6.69203827647391 8.287131771642528 14.360612733188061 0 0 0
178 1 0.4121453898334612 4.431830379659331 7.805727901884772 13.35190008856785 0 0 0
53 1 -0.1040362590486185 4.033845325428601 6.565569700775408 17.40152130372345 -1 0 0
182 3 -0.4366832685686268 7.589603850494533 8.795780047553109 14.948032174173694 0 0 0
51 2 0.1821549975227393 2.2767577379070496 5.606867207618579 16.526218753470896 -1 0 0
48 2 0.2347202330701888 7.260376560704851 5.974000371993405 16.452253242756072 -1 0 0
52 1 0.1932880609797072 5.468965061541634 6.70362213996149 17.406798605878915 -1 0 0
47 1 -0.1032442802800402 4.135546106585692 4.8781372897635755 15.617002123218699 -1 0 0
46 1 0.1939286036219213 5.568504762997153 4.9532790899294525 15.549128377589756 -1 0 0
183 2 0.2005854383813628 2.378485961875805 8.983466784586309 15.009686970896993 0 0 0
181 4 -0.4143484606441936 5.133927495976152 8.546138705807719 14.521889409490779 0 0 0
177 1 -0.03684766838458255 6.871655679566666 7.3056486526963695 13.208933552586263 0 0 0
55 4 -0.4187198827345023 6.1138448712639155 7.677654217006614 18.320294210283514 -1 0 0
175 2 0.183227253054518 8.997881043730779 6.7388813315609895 13.144981318178163 0 0 0
179 3 -0.4954199432146398 3.290510400395875 7.865719259244069 13.024063502194208 0 0 0
206 2 0.1772286190437554 1.9337235956262275 6.07923329836398 20.89082883416506 1 1 0
205 1 0.2306212848373595 8.070582231610391 6.189180947139772 21.424482219657417 0 1 0
208 3 -0.5093351715886733 8.312253287862516 7.144334633653838 22.42886863456599 0 1 0
202 1 -0.1367089603190949 6.753478214124382 5.7391673587083005 21.153570129916634 0 1 0
69 2 0.1786003964913763 2.289056838404353 8.566513873035257 21.917803922203582 0 0 0
203 2 0.1580881986517597 5.909879680883434 6.116983767941435 21.736586564474035 0 1 0
199 1 -0.04154229790463278 6.516397097886883 4.778420405787727 20.106097708615703 0 1 0
204 1 -0.1158729423589938 9.189175295497048 5.711624022767526 20.66233077713162 0 1 0
54 3 -0.4919135258171912 4.168016439753374 8.390610270862805 19.68431015122513 -1 0 0
57 1 0.4114525096757982 5.3327224302877 8.417001066416892 19.444364653557102 -1 0 0
59 1 0.416521294517151 7.670020928352445 7.974608320386061 18.56544423109263 -1 0 0
61 1 -0.01519910805782988 7.754145835856066 8.918562521918824 19.76466399731409 -1 0 0
201 1 -0.04808765556879255 9.0239741390588 4.771309461123355 19.604003346554475 0 1 0
210 1 0.2523628603816005 8.691760170716869 6.643498127375257 23.57937314026713 0 1 0
76 1 -0.1048895979527093 3.613925859893235 8.69917060972555 23.600700179812392 0 0 0
73 2 0.127799683216509 3.816660667810841 7.627864899437789 23.545788890778915 0 0 0
74 2 0.1218696265420302 4.660976673874083 6.646628017000762 25.17507952213827 0 0 0
218 1 -0.0140925295711757 9.022240878150527 5.631744576910835 26.274023511733475 0 1 0
222 2 0.1279570532124382 9.614918876049119 7.11160534172103 28.69317619065084 0 1 0
85 2 0.1327451550102948 6.316841641883125 6.837355687222193 25.807063687435917 0 0 0
79 1 -0.3091663284073544 5.547781755657185 7.317103070978726 25.16278353108646 0 0 0
89 1 -0.01042139935860314 4.597503681696883 8.772509319070672 27.022185739095953 0 0 0
214 1 -0.1252589870605698 9.187009289113313 7.047739626087317 25.97642589552989 0 1 0
82 2 0.1446872563021963 5.971335900928066 7.328678526018884 24.133518120202623 0 0 0
215 1 -0.1666073421310781 8.55795419703155 5.219957703008433 23.865845965626338 0 1 0
209 1 -0.154396559043077 9.079618456634085 7.5354059449357464 24.662845538994272 0 1 0
225 1 0.01627424311151534 9.273081546414247 5.1440220698286065 27.65891668954143 0 1 0
207 2 0.1425572429754405 9.26587211324512 8.59424811695544 24.468257529851407 0 1 0
219 1 -0.3003636250034282 1.92164815704459 6.189151187189863 28.43665379980891 1 1 0
211 2 0.1128355192944267 9.430960562446158 7.749426332656506 26.776144049222257 0 1 0
92 1 -0.1116633160108032 5.254283450995245 8.054764623477123 28.106403464952397 0 0 0
227 1 -0.01067467797583508 8.034035343338749 4.8544494423690345 28.453436114825795 0 1 0
90 2 0.1184993459551142 6.200319686160503 7.539543843631754 27.916481133158218 0 0 0
213 2 0.1480077276537427 2.8016485265616358 6.494248617600323 27.82632426588323 1 1 0
87 1 0.02278289108218302 5.188005516570738 8.805728149053154 25.65570742731152 0 0 0
221 1 -0.1269170630393628 8.727575903624803 4.729600138643429 25.169966207442023 0 1 0
98 1 0.2679264018130473 3.4661816527790728 8.665332353329749 29.73082548000308 0 0 0
235 2 0.1448061822288071 6.496254851570246 5.547364985238865 31.518226332444833 0 1 0
107 1 -0.04474348540498254 2.3520007099591935 6.252846290364697 33.717282845076134 0 0 0
101 1 0.2560910148772913 3.2025410869721287 7.749626496668742 31.92415320788927 0 0 0
103 2 0.1545870650721597 9.364937052677803 7.178113000306317 32.16681256072873 -1 0 0
102 1 -0.1583769484211012 4.515697921346944 7.580101263471492 32.496231696004344 0 0 0
231 1 -0.1146901249538931 7.80412570175781 5.385338909883509 29.783168256527976 0 1 0
105 1 -0.06817177385217593 4.801383535486243 6.708298000621123 33.58031451074274 0 0 0
104 1 -0.1268946077600406 2.121470754645889 7.061703890492982 32.549989401505734 0 0 0
100 2 0.1376250690024827 5.3450167694713295 8.159618654663117 32.08433139662017 0 0 0
96 2 0.1389185995551577 5.208993556892682 7.3755529226045455 30.14927424532188 0 0 0
94 1 -0.1620156662195905 4.699327695697853 7.972511231660679 29.395591981663916 0 0 0
224 2 0.162213504671035 2.3237361220276482 5.769280751506964 29.385110110730572 1 1 0
99 3 -0.5210267160229163 2.8443757828359546 8.590687567483394 30.89722898626235 0 0 0
229 2 0.1200701025886296 8.555988722794307 6.025262350473104 30.24908052992526 0 1 0
233 1 -0.1701513454599714 6.623162266638274 5.112880452877957 30.520764486848346 0 1 0
106 2 0.1737481065144781 5.829745128287766 6.598976040169608 33.938988356795264 0 0 0
108 1 -0.03507175349245512 3.742749638603889 6.006444897080305 34.2497365766293 0 0 0
253 2 0.2465609735216658 4.291939396415282 7.8653873112776145 37.68254339504655 0 0 0
109 1 0.4032954024883997 9.59957727563368 5.554596818984122 34.6308287744444 -1 0 0
257 1 0.1946690571231509 2.603881287844543 6.838322245619226 38.59597762215217 0 0 0
261 1 -0.1075343076939207 9.429772642708762 6.809309089408228 38.58781346943472 -1 0 0
256 1 -0.1018503174290386 9.31216501855211 8.39237467999247 36.71014011433188 -1 0 0
252 1 0.1905200668355991 2.4854339959579415 8.500923501295993 36.671681468948286 0 0 0
258 1 -0.07578071286462976 8.656065747289052 7.579860007386411 37.67313283013989 -1 0 0
264 3 -0.4860093138985256 5.783710222322456 6.48277400424267 38.96510018662551 0 0 0
255 1 -0.1277244785340381 3.202124482046023 7.74884209711706 37.66054636018406 0 0 0
111 1 0.40215645631778 3.6609639381351955 5.088625964497877 35.47495400145781 0 0 0
259 2 0.1979601363232264 7.5628573545727535 7.540338162138571 37.69639127859434 -1 0 0
110 3 -0.4796344783561859 8.426563948420934 5.574339196811685 34.43395334117188 -1 0 0
265 1 0.4181138849288321 4.961891746532815 5.8333807028306754 39.526078538833175 0 0 0
266 2 0.1903325727630145 8.900051869019428 6.175114381335543 39.29739547101074 -1 0 0
262 4 -0.4261483714867572 3.3958609584325936 5.928340003783467 39.461484768887374 0 0 0
116 2 0.2089839920654507 7.788613206473812 4.874651511051252 36.60080891558018 -1 0 0
112 4 -0.4127321888215095 2.141378002616159 4.8462206350366825 35.77403142280785 0 0 0
254 2 0.2133003568765944 8.694886438178836 8.950595637139116 36.00301369678169 -1 0 0
132 1 -0.1306308596290981 3.097037150235267 7.673893980070628 42.73868573659122 0 -1 0
137 3 -0.5113221490956246 4.377003133681814 6.149757709154488 44.182435181459375 0 -1 0
135 1 0.2413953313143163 4.3251337403359145 7.107422112481668 43.152598282089045 0 -1 0
263 1 0.4097545909478764 2.8193659503456865 4.9100448085167825 40.52171139036334 0 0 0
131 2 0.1604259898835177 2.1716537553790065 7.405841222565115 43.25743456007601 0 -1 0
268 1 -0.0469350468159694 5.275295007720273 4.749739855795143 40.561980536497366 0 0 0
134 2 0.1853179891825067 6.522404404464911 8.672850335949466 40.94018098814016 0 -1 0
138 2 0.1524867409203002 6.4834685326501695 6.996949102641254 42.79738757676172 0 -1 0
136 1 -0.1263457188139482 5.544160788963639 7.45867698732922 42.47879019237495 0 -1 0
133 1 -0.04803344461077304 5.574435584966575 8.402421603430758 41.41270762612626 0 -1 0
129 1 -0.04009301558331183 3.0560821453097877 8.580871072034636 41.61479699673079 0 -1 0
130 1 -0.03630807697822066 4.34329552400104 8.973374323673621 40.93444637265252 0 -1 0
260 3 -0.4899439971947205 9.945502715522478 4.701602210646932 40.79088983467607 -1 0 0
1 2 0.1617235551132929 3.9361130715280392 8.716681513058212 44.959243928748215 0 -1 -1
149 1 -0.3101874577148936 2.515502881639742 11.838481632979045 5.028328151606017 1 -1 0
145 1 -0.1084510896290196 7.829327488920278 13.005474964508092 2.964271135194627 0 -1 0
153 2 0.1254303129895014 2.3459185056849936 10.881682723523202 5.562610741339285 1 -1 0
142 2 0.1330555292880243 2.9535949116959674 11.61846844794767 4.027765921654389 1 -1 0
161 1 -0.1122378234295517 7.358064002447765 12.309684596161691 6.456601580828558 0 -1 0
150 1 -0.1203844541176111 8.129258779767806 10.699247532944128 3.820670969948954 0 -1 0
148 1 -0.009977544834955936 8.505620117452503 12.102381845058515 3.8840318257436937 0 -1 0
154 2 0.1142012751884376 8.586903319686341 9.984403228413584 4.5110662154289445 0 -1 0
159 2 0.1226743766086485 6.8762219306566825 11.767044666112053 5.63812772218284 0 -1 0
151 2 0.1117840906705394 3.294145640118659 12.392195350801359 5.599156032113504 1 -1 0
19 2 0.1127294873232437 5.308784360594963 10.212555889696798 6.464480071270992 0 -1 0
158 1 -0.01160448105165492 8.708810339661877 12.83214072589784 6.250925200931286 0 -1 0
5 2 0.1118609610654142 4.061601698598554 9.508548650828743 4.665590475052531 0 -1 0
155 1 0.02155565180520887 9.423308702722153 12.695147192715897 4.89176030628122 0 -1 0
14 1 -0.3033961666696508 5.735524891493658 9.300944674398798 6.9311469047672185 0 -1 0
9 2 0.1445317318083204 4.857722234900703 13.287795703373241 3.6674457598213457 0 -2 0
147 2 0.1410502354369155 6.880017113498349 9.170286175225044 2.917633892559585 0 -1 0
146 1 -0.1554401000805029 7.155037374773606 10.230313986109255 2.917331252670076 0 -1 0
163 1 -0.1543218205929951 6.647941225549025 12.47369377552521 7.647052599611844 0 -1 0
18 2 0.1319716355258679 6.66101375097758 9.033476311641667 6.3787346780742284 0 -1 0
31 2 0.1746081086485364 1.9041828136130514 9.55601272507725 11.47176115522836 0 -1 0
28 2 0.144790211683946 2.154268930195992 10.90723774415685 9.829188662766386 0 -1 0
35 1 -0.1083542044744428 6.832685074377476 10.522329048608352 11.399401480401396 -1 -1 0
32 1 0.2668574180543 8.06927278725565 9.976911542628237 10.908479423886583 -1 -1 0
33 1 -0.1525240919096565 9.263555491179632 10.113230116604635 11.731489385420135 -1 -1 0
24 1 -0.1121255348782722 3.3440994587279684 9.666753222207804 8.516594255928222 0 -1 0
36 1 -0.06415777786915014 9.315425748066744 10.959514564607911 12.85210637751643 -1 -1 0
38 1 -0.03011860951822948 6.830553726424497 11.340958022003132 12.569047680659732 -1 -1 0
34 2 0.1703577915933566 5.900789757893135 10.325102648549151 10.865627827562303 -1 -1 0
29 1 0.2621898611147094 9.184832365062851 9.295587787097123 8.955005325970088 -1 -1 0
30 3 -0.5234163499468429 8.050439144854941 9.490031521989895 9.65476134142534 -1 -1 0
22 2 0.1177631519483986 4.247933967635179 10.226549621176872 8.76319360866492 0 -1 0
26 1 -0.1654169283620928 2.1471788004420045 10.049155106303918 9.151875892554454 0 -1 0
6 2 0.1562458529960299 6.044551934832553 9.563405119594018 7.966492841765783 0 -1 0
165 2 0.1226233961781233 5.645182647401621 12.052457759076223 7.732637637565035 0 -1 0
167 1 0.2682291221177211 7.199358763232894 13.239977679400152 8.764951134645106 0 -1 0
41 3 -0.4837473011061635 4.551609027187278 11.996499187104895 12.990185832686574 -1 -1 0
190 1 0.1897419579459465 4.761380259734158 11.058352476714855 17.48043668458981 0 0 0
187 1 -0.128804457302384 5.241761518837979 10.353011839143289 16.32403586361691 0 0 0
188 1 -0.07343819384949996 2.517867907221018 10.181683475303172 16.815613651643886 0 0 0
42 1 0.4152416276138194 7.865922166136852 12.586870784291158 14.464488924785487 -1 -1 0
186 2 0.2492921822990518 6.306617764916892 10.432825594930383 16.092593521017125 0 0 0
185 1 -0.1219844691974833 3.058381642437094 9.529526711324783 15.67310252193803 0 0 0
192 3 -0.4615799861883759 7.916851167375139 11.271882205701685 17.6056751389173 0 0 0
44 3 -0.4711589744420912 8.70858257022465 13.059545202334476 15.157226621144718 -1 -1 0
191 1 -0.1140326581311981 3.3570475717951394 10.91013607963266 17.709918492874003 0 0 0
43 4 -0.4315254516545663 6.31549290945869 12.810769992186739 14.54633098462633 -1 -1 0
189 2 0.2203985244566711 9.707524152528634 10.106959144770478 17.012671384610208 -1 0 0
37 2 0.1747104912722008 1.9874898825711163 11.078188144377105 13.409200327263594 0 -1 0
184 1 0.1880017943587308 4.474693292307469 9.514052650081315 15.449022913585376 0 0 0
39 1 -0.0457728351998077 8.125937748373273 11.646528000913534 13.290209369814558 -1 -1 0
40 1 0.409326610035194 5.687718238328754 12.03508967778808 13.326623570319407 -1 -1 0
45 2 0.1954780200488505 3.600106490688639 12.859907962008553 14.961890369270343 -1 -1 0
195 1 0.4083109395402215 7.196783775884499 11.937740908178645 18.278321339248464 0 0 0
64 1 -0.1242366178125861 8.835794834089524 9.592391714588462 20.42042321704898 -1 0 0
68 2 0.1294923503102807 7.0611725574390345 11.251992648506883 22.938382405443303 -1 0 0
62 2 0.163868832960196 5.100688598431262 10.204104502650388 21.783183601728926 -1 0 0
197 1 0.3985456436142446 5.231514021704994 12.795326285594896 19.583732332232373 0 0 0
198 1 -0.04171059431117692 7.701129504239843 12.9453180255936 19.316312963091338 0 0 0
71 1 -0.1531830039315577 2.7218176590840892 9.229518393453244 22.66597722094633 0 0 0
72 1 0.2634973864951695 2.3453933746739817 10.636215635473134 22.732160191928912 0 0 0
66 1 -0.1365547424431933 7.232046724331267 10.620787351559116 22.063693323046994 -1 0 0
70 3 -0.518761982546814 9.538608860571923 11.176979916966998 22.16248032274377 -1 0 0
63 1 -0.06938329765734327 6.120637573018715 10.026187344739757 21.428129409568083 -1 0 0
67 1 0.2685664613381615 8.57502459912255 10.414594354197963 21.555901502152246 -1 0 0
200 2 0.1670970776856861 9.886003627961555 13.0986351688355 19.02447206292215 0 0 0
193 4 -0.426499730914187 5.644494229975024 11.877181422880106 18.361386722931396 0 0 0
216 2 0.1638811326730585 8.313456391887087 13.19323613089178 23.060591582264223 0 0 0
196 3 -0.4858674828296031 4.156086030886403 12.953347737356136 20.05926669307725 0 0 0
194 2 0.1812007083938743 2.9100616879197583 11.36976449208955 18.591428399791294 0 0 0
60 1 -0.03938340387774197 6.358432249154653 9.171928064513091 20.295084122813453 -1 0 0
65 2 0.1820796021549887 9.85646651644508 9.485898564402305 20.043630148447903 -1 0 0
91 2 0.1151642187598098 2.7944938890495363 9.966860875475117 26.57078872720944 0 0 0
220 2 0.1251105124287955 2.824670869357828 12.722445642021867 26.869040373946927 1 0 0
95 1 -0.1584067749398718 2.818471367873203 9.409633427367826 28.656972134110408 0 0 0
93 1 -0.1245762747648629 3.3430986841735777 9.432639697462706 27.353423919441408 0 0 0
86 2 0.106455060120982 6.480283769441637 10.605955589526639 25.908100261429357 0 0 0
212 2 0.1079184453463306 9.628869747832569 11.690322623431808 26.933539538670203 0 0 0
80 1 -0.02200280811429568 4.271419657132924 9.499537526873558 24.632546233261223 0 0 0
81 1 -0.3116747526230544 6.587788713155496 9.525621606813619 25.697765072325357 0 0 0
88 2 0.1031050424998789 4.424200913043774 11.59782833077248 25.32721231609148 0 0 0
226 2 0.1033589358586587 8.635621320511111 12.316571728832349 25.33025323136719 0 0 0
83 1 -0.1340553670464539 3.9527809919896053 10.926093653134085 24.603662077687606 0 0 0
84 2 0.134177750576166 7.120923695601638 9.427527237586553 24.727295146065497 0 0 0
217 1 -0.302503084439728 1.9188841739308626 12.488107667087535 27.47296971611818 1 0 0
230 1 -0.1249936937198828 6.985692371455136 12.671106866292622 27.92797463501457 0 0 0
234 2 0.1385970929777849 5.078245448991632 11.657169529726826 28.266836037265744 0 0 0
232 1 -0.1533118204304378 5.822050265562065 12.348038322873675 28.67669629382279 0 0 0
228 2 0.0999717426208997 7.0938090699912415 12.247230729660266 26.931603635239778 0 0 0
223 2 0.1474395252015447 2.2578958532377853 12.074663632374758 28.443537743683052 1 0 0
77 1 -0.1505833158196782 3.0403193682287215 11.480580821676153 23.704244560291606 0 0 0
97 2 0.1313795340496925 1.8808996003362943 9.931591775611604 28.864212079815186 0 0 0
75 2 0.1170964552377375 7.2472138902758925 9.092409934208574 26.482484201988644 0 0 0
78 2 0.146033843087536 2.803093328668059 12.547526741323889 23.7479518646759 0 0 0
239 1 0.2739817599760343 4.544748479120557 11.876884727981508 31.70614733970908 0 0 0
240 1 -0.156540053562684 5.851727937155907 11.49099017169762 32.22641881885398 0 0 0
241 2 0.1796227553129674 2.3587596159998094 11.670950209943449 31.97311160689312 0 0 0
246 1 -0.03435827740984583 4.843465091605376 10.42300707637643 34.193539772624106 0 0 0
238 2 0.1499809143260616 6.75134336205286 11.731491586297981 31.66106191893275 0 0 0
242 1 -0.1042939660329254 3.3503120802972752 11.46495537911 32.3926266460993 0 0 0
245 1 -0.03039149422482411 3.4756582150795197 10.74596581970416 33.61520605290913 0 0 0
243 1 -0.06802375137562491 6.012055658830429 10.819427047897431 33.450124889730446 0 0 0
236 1 0.2408928520305279 5.608024506168935 12.915572738189656 29.979505656191527 0 0 0
237 3 -0.5074918789315637 4.420854253491106 12.634298628356422 30.628657123979856 0 0 0
244 2 0.1880334441404698 7.010924158465872 10.57114423079287 33.821932041952905 0 0 0
120 1 -0.08009990928748574 7.777198723767095 12.037749915504481 38.16489168128739 -1 -1 0
249 1 0.4067328733974719 4.722037232367679 9.592005349217178 35.464129821812676 0 0 0
121 2 0.1976084708002253 6.70343560461337 12.148028956250052 38.355211577224246 -1 -1 0
118 1 -0.1064245246453759 8.40088195504444 12.822605025666899 37.15504486222077 -1 -1 0
114 1 0.196766413758868 9.797920479573627 12.684251875166055 36.86401607346921 -1 -1 0
123 1 -0.1069119926783493 8.553246649985745 11.12317058829225 38.9336437937992 -1 -1 0
250 4 -0.4261694141170443 3.158548972147627 9.316340227365323 35.632628763816534 0 0 0
119 1 0.1953441393017125 9.967031608001198 10.966685235693719 38.758413049810905 -1 -1 0
126 3 -0.4453302487510489 4.8834597121110175 10.431161854784042 39.09324604624709 0 -1 0
115 2 0.2387071894787778 3.308804880078754 11.599984389746666 37.44757728956554 0 -1 0
117 1 -0.1307573035171438 2.2464296674235187 11.740801563190791 37.67632083012658 0 -1 0
251 3 -0.4460918277415185 5.629272372904864 9.231454801327654 36.13861000111002 0 0 0
247 1 0.4169506984392979 2.4095073401311122 10.121278449832795 34.52134086584469 0 0 0
248 3 -0.4778034745230788 9.498252930640144 10.263151000450808 34.38278889517917 -1 0 0
113 3 -0.4276549133196925 4.590494096174741 13.323935342318098 36.07827602988281 0 -1 0
276 2 0.1736983394503132 7.553396047033344 11.44714200111661 42.21627915327444 0 -1 0
140 1 -0.1547101675106125 6.882176523712565 12.534009863172486 44.65789284627726 0 -1 -1
141 1 0.2486978830859734 6.510503065809151 11.13150447076171 44.60345321329647 0 -1 -1
274 1 -0.1482971540775774 6.5839931375192755 11.876722896227092 41.95347239235541 0 -1 0
122 3 -0.5058302968703926 9.025160099596635 9.132570317692572 41.1962118184053 -1 -1 0
273 1 0.2602092737946437 5.387249908161162 11.460623058062412 42.663824815091 0 -1 0
269 2 0.1777067836117297 3.1939416666914315 11.564458884885113 42.75484185039132 0 -1 0
270 1 -0.1091837032941338 4.103819573578197 11.924020334737623 42.25046586637191 0 -1 0
275 3 -0.5069033233060075 5.52510723633671 10.71809130862658 43.79495971437702 0 -1 0
125 1 0.4053159043914625 1.9030601697486693 9.275093735583985 40.89247470158068 0 -1 0
271 1 -0.08449312183408171 6.547674285503666 12.86811292977248 40.95149502693121 0 -1 0
267 1 -0.02480969789209228 4.008836478872771 12.883233768079318 41.20074425104914 0 -1 0
272 2 0.1702656303016076 7.465673225653538 13.214520483774358 40.46729219876964 0 -1 0
139 2 0.1729373383709803 6.397122776781357 13.250899243694494 43.99205589748215 0 -1 -1
127 1 0.3998226033835355 4.047576585396466 9.941012399131601 39.77910655384509 0 -1 0
124 4 -0.4249520314975991 2.4934415747070173 10.134361063733959 39.71113217683784 0 -1 0
128 2 0.1948459301689487 8.034948095938065 10.551561870951803 39.70239827954371 -1 -1 0

Velocities

8 0.0025296835632547666 0.0008034865411166352 -0.010245722118066495
12 0.0011376288448693259 -0.004855079803355121 0.004153969261319027
2 0.00022293070244279155 0.002057179823824899 -0.008042995096334236
144 0.021572794455994554 0.02167484436100033 -0.005230513430281811
10 0.003620593460835022 -0.0027251943871246 -0.010198303538965293
3 -0.00021137414933306215 0.005308006497424348 0.0045562654379956834
17 0.0002988571956516075 0.0034075254164730854 0.010586891162735505
21 -0.02000655919868439 -0.01645928941379848 -0.00512548366253256
16 -0.0008599582616862914 0.014091552853267202 0.014133574997789031
15 -0.011905281425362926 -0.0003201738729544236 0.025853612441062428
23 0.003554697022911228 -0.0022494806503902056 -0.006994596393452515
156 0.023925089024256222 0.007957379999831987 0.001129158659901111
143 0.00257796449928348 -0.001771644179959545 0.013491598831890427
20 0.003763041530663343 0.005550476875653666 0.002772593649588669
7 -0.0011306917136854418 -0.0011765147659070602 -0.0007368813617144896
152 -0.004485189275209498 0.00043007100208109134 0.0012439399260184487
157 -0.00779301483208991 -0.01028567117199668 -0.035747224649306436
160 0.009281130838460553 0.01931133230743369 0.007719720712219678
162 -0.010721671469673616 0.0066244285643332415 0.004892411471007439
176 0.0034192327890111593 0.009370452753808212 -0.007655694026417505
4 0.014598657023498426 -0.0065983302914461245 -0.020558250967380343
169 -0.011611943084200452 0.001362859716542509 -0.004574828666008638
173 0.0023196590551685828 0.000452728498390956 0.004767661438941753
174 0.000699369986471904 -0.005593290697490763 0.005450510363464033
164 0.006686215235577224 0.005966191339016823 -0.006626336539580962
11 0.003028897456316929 -0.0063060055436273375 0.009208110451112018
171 -0.006501105513483878 0.0038235059910190043 0.013773231308840369
25 -0.008514190449111452 0.00017240735505748674 0.008168965129628288
170 0.003914998820728729 -0.005079270116548799 -0.002981216948571454
172 0.011212948787712685 0.008403203502275377 0.017063904738064448
168 -0.010024426062211817 -0.0014577724384348756 -0.006192705514948542
166 -0.00569668673298029 -0.0044135277388660295 0.005388546688266524
13 -0.012879299773134654 7.933245158778078e-05 0.014884808349263763
27 0.006531722697047274 0.009416619467362681 -0.00847012025534254
58 0.0038298564364025772 0.0035272408021428388 -0.0002601709442337092
49 -0.0037250138391215844 0.0013179167520101305 0.005265273487499081
50 0.0017228630018233215 -0.002070747741303767 -0.00259068308195745
56 0.012705065113073392 0.0018195781920014083 -0.012335962894340054
180 0.0009224481169916708 0.003433287626346193 0.0017427626473696866
178 -0.0032545228107784745 -0.0026016113319912216 0.007840485057443596
53 -0.007406932046290805 0.0077962862867174704 -0.0001812762645282461
182 -0.0029950578810022397 -0.0045458693034811605 -0.0036946268685355004
51 -0.001727836929318419 0.022160629153970383 0.0033980229025336547
48 0.02165025092435403 -0.018511930922786867 -0.004853192952059768
52 -0.0002018430887356935 -0.006596983989657673 -0.0003345573971478232
47 -0.0029378566345850134 -0.005189927260760067 0.0053459422453496705
46 -0.006634296690430031 -0.007691484874154849 -0.002202049362554998
183 -0.012529224620139015 -0.0077229447785675 0.010711539913424505
181 -0.0016991822248805864 -0.004851703759296321 0.002455197236913021
177 -0.005882941249547948 0.0011960042822576108 0.0034118394481295845
55 0.0001780302829229048 0.0057790023067052386 -0.0025599509811886282
175 -0.007643161465239653 -0.010286243712764695 -0.011039057679793827
179 0.007479567502996517 -0.006883848622744454 -0.002040634637482303
206 -0.021928563297833898 0.019058836954747655 -0.014217227151819473
205 -0.0030213537997073104 0.00018552762567471847 0.0011029950684588764
208 0.00242215781294695 -0.007012283368734526 -0.004604211362595156
202 -0.007589244057435706 0.003327237088839696 -0.00013027482064605273
69 0.01742170074903192 -0.004278426535444197 -0.031299910119194536
203 0.005239108316740746 0.003979435902348934 0.013569839607994518
199 -0.0014339295468350551 0.005050692880518509 -0.007075883503673914
204 0.0016324785306164674 0.006785486931221669 -0.0037038530478309467
54 -0.0014736844736110996 0.004856990060621791 -0.004340073331436925
57 -0.0050097619731677675 -0.0003119709535836316 -0.003055595026001284
59 0.004453286631895261 0.001319606832490129 0.0007177458078723479
61 0.0020692840239704665 0.003242292625991477 0.0027437846277413125
201 0.0013830219468311045 0.002426932781656578 -0.004224404231011341
210 -0.007234145220677476 -0.002406477415124295 -0.0002978338218018445
76 0.0014155552248506502 -0.0005600617025161736 -0.004344163373049015
73 -0.014857266299669632 -0.00048362403754011467 0.0017660278893525832
74 -0.007060356301883621 0.01806564348519304 0.00848239795428915
218 -0.0009415797847928998 -0.009512586784892921 0.002593339437452487
222 -0.007413022579619458 0.017939839533127437 0.007540521354765303
85 -0.00020052490401137955 0.019352521291526252 0.0018469904378491124
79 0.0019338884900661035 0.0018378598023163924 -0.001797598730441687
89 0.007568194138952428 -0.0018625956560222327 -0.00392676121654858
214 0.008403969827821172 0.0031908781670562086 -0.004504964697254661
82 -0.019125062955006895 0.024732201437500517 0.007751113467597466
215 0.0024552755156470886 0.005397162404937465 -0.0011459033595128353
209 -0.004511783629975253 -0.0004947056755361111 -0.0005391266339924485
225 -0.003549291059783659 -0.002910886501571297 -0.0017350007835111123
207 0.006246150790720349 -0.012379011577957325 -0.005983074347193885
219 -0.0009729600728816165 -0.0016398773374254418 0.00030904408302973415
211 0.01983826824285168 -0.011208435323137351 -0.005964164044595639