Lattice="12.094183 0.000000 0.000000 0.000000 10.419235 0.000000 0.000000 0.000000 404.800000 "
962 atoms
1041 bonds
4 atom types
  0.000000  12.094183 xlo xhi
  0.000000  10.419235 ylo yhi
  0.000000 404.800000 zlo zhi
  0.000000   0.000000   0.000000 xy xz yz


Masses

1   1.00784
2   12.011
4   15.999
3   32.06



Atoms

1       1   1.109078   3.307261   1.918369
2       2   2.129253   3.091099   1.603022
3       2   2.595828   3.525690   0.361411
4       1   1.940585   4.112234  -0.280000
5       2   3.889187   3.184595  -0.050000
6       2   4.717249   2.454314   0.813246
7       1   5.711596   2.182071   0.469964
8       2   4.238426   1.997956   2.042607
9       1   4.863991   1.353197   2.659441
10      2   2.931396   2.310023   2.431820
11      3   2.119420   1.410971   3.787619
12      1   2.571341   1.275633   8.655346
13      2   2.721634   1.881209   7.763313
14      2   2.405245   1.363538   6.509635
15      1   2.039417   0.341366   6.426362
16      2   2.573347   2.149145   5.362482
17      4   3.490341   3.811241   9.068635
18      2   3.065793   3.447486   5.471104
19      1   3.216550   4.050528   4.577621
20      2   3.381002   3.967566   6.721303
21      1   3.775091   4.975664   6.817562
22      2   3.207872   3.188980   7.869106
23      4   0.676026   1.578480   3.600474
24      4   2.734695   0.083989   3.794507
25      2   3.814417   3.220053  38.029077
26      1   2.230837   2.962768  11.305285
27      2   3.302674   2.777237  11.270319
28      2   4.055172   3.098681  10.135452
29      4   3.300297   0.080775  13.723559
30      2   5.428118   2.850864  10.107037
31      1   6.004547   3.117682   9.222893
32      2   6.062562   2.293050  11.216606
33      1   7.137264   2.114816  11.205173
34      2   5.332233   1.955211  12.353942
35      1   5.814594   1.486247  13.211310
36      2   3.958544   2.201013  12.367834
37      3   2.969139   1.502222  13.719403
38      1   2.993667   1.275007  18.584375
39      2   3.312880   1.870780  17.732536
40      2   3.113755   1.392053  16.437204
41      1   2.654184   0.414177  16.297959
42      2   3.497627   2.154835  15.325218
43      4   4.253377   3.627854  19.168987
44      2   4.117542   3.390533  15.521226
45      1   4.421892   4.002860  14.674022
46      2   4.363600   3.846560  16.817386
47      1   4.876198   4.794337  16.974267
48      2   3.942946   3.104381  17.926309
49      4   1.594049   1.950369  13.523444
50      1   0.538323   3.526811  21.860257
51      2   1.584633   3.274879  21.696212
52      2   2.219569   3.595626  20.498651
53      1   1.680463   4.115551  19.710651
54      2   3.552710   3.227549  20.306162
55      4   0.663146   2.686989  33.775983
56      2   4.250793   2.536692  21.300118
57      1   5.284526   2.247159  21.126935
58      2   3.611012   2.200976  22.489011
59      1   4.135928   1.621077  23.245079
60      2   2.280178   2.581901  22.684781
61      3   1.328677   1.872303  24.041003
62      1   1.768480   1.798149  28.936182
63      2   1.956401   2.378606  28.033344
64      2   1.653670   1.841255  26.777138
65      1   1.251069   0.833210  26.701666
66      2   1.855889   2.592701  25.614063
67      4   2.734589   4.345599  29.313672
68      2   2.364828   3.888146  25.712492
69      1   2.532774   4.483451  24.817750
70      2   2.673629   4.424580  26.958164
71      1   3.065992   5.434717  27.046128
72      2   2.464113   3.681175  28.122987
73      4  -0.067000   2.289393  23.843273
74      4   1.764624   0.469689  24.044728
75      1   1.335952   3.435800  31.509063
76      2   2.403897   3.227892  31.493375
77      2   3.217271   3.603381  30.413749
78      4   1.981058   0.508776  33.958863
79      2   4.588098   3.335187  30.445770
80      1   5.203417   3.641891  29.601997
81      2   5.158607   2.688835  31.540121
82      1   6.228157   2.483570  31.554015
83      2   4.364407   2.294866  32.615882
84      1   4.800380   1.791182  33.478143
85      2   2.998255   2.571621  32.588450
86      3   1.931476   1.976358  33.951677
87      1   2.948268   1.361567  38.738165
88      2   3.096092   2.023028  37.884425
89      2   2.566562   1.661041  36.644082
90      1   2.036886   0.715148  36.545583
91      2   2.729315   2.490401  35.525751
92      4   4.425156   3.618924  39.213370
93      2   3.445750   3.680622  35.672861
94      1   3.581660   4.345784  34.822816
95      2   3.995463   4.036762  36.905193
96      1   4.549512   4.967756  36.998171
97      1   1.109078   3.307261  42.398369
98      2   2.129253   3.091099  42.083022
99      2   2.595828   3.525690  40.841411
100     1   1.940585   4.112234  40.200000
101     2   3.889187   3.184595  40.430000
102     2   4.717249   2.454314  41.293246
103     1   5.711596   2.182071  40.949964
104     2   4.238426   1.997956  42.522607
105     1   4.863991   1.353197  43.139441
106     2   2.931396   2.310023  42.911820
107     3   2.119420   1.410971  44.267619
108     1   2.571341   1.275633  49.135346
109     2   2.721634   1.881209  48.243313
110     2   2.405245   1.363538  46.989635
111     1   2.039417   0.341366  46.906362
112     2   2.573347   2.149145  45.842482
113     4   3.490341   3.811241  49.548635
114     2   3.065793   3.447486  45.951104
115     1   3.216550   4.050528  45.057621
116     2   3.381002   3.967566  47.201303
117     1   3.775091   4.975664  47.297562
118     2   3.207872   3.188980  48.349106
119     4   0.676026   1.578480  44.080474
120     4   2.734695   0.083989  44.274507
121     2   3.814417   3.220053  78.509077
122     1   2.230837   2.962768  51.785285
123     2   3.302674   2.777237  51.750319
124     2   4.055172   3.098681  50.615452
125     4   3.300297   0.080775  54.203559
126     2   5.428118   2.850864  50.587037
127     1   6.004547   3.117682  49.702893
128     2   6.062562   2.293050  51.696606
129     1   7.137264   2.114816  51.685173
130     2   5.332233   1.955211  52.833942
131     1   5.814594   1.486247  53.691310
132     2   3.958544   2.201013  52.847834
133     3   2.969139   1.502222  54.199403
134     1   2.993667   1.275007  59.064375
135     2   3.312880   1.870780  58.212536
136     2   3.113755   1.392053  56.917204
137     1   2.654184   0.414177  56.777959
138     2   3.497627   2.154835  55.805218
139     4   4.253377   3.627854  59.648987
140     2   4.117542   3.390533  56.001226
141     1   4.421892   4.002860  55.154022
142     2   4.363600   3.846560  57.297386
143     1   4.876198   4.794337  57.454267
144     2   3.942946   3.104381  58.406309
145     4   1.594049   1.950369  54.003444
146     1   0.538323   3.526811  62.340257
147     2   1.584633   3.274879  62.176212
148     2   2.219569   3.595626  60.978651
149     1   1.680463   4.115551  60.190651
150     2   3.552710   3.227549  60.786162
151     4   0.663146   2.686989  74.255983
152     2   4.250793   2.536692  61.780118
153     1   5.284526   2.247159  61.606935
154     2   3.611012   2.200976  62.969011
155     1   4.135928   1.621077  63.725079
156     2   2.280178   2.581901  63.164781
157     3   1.328677   1.872303  64.521003
158     1   1.768480   1.798149  69.416182
159     2   1.956401   2.378606  68.513344
160     2   1.653670   1.841255  67.257138
161     1   1.251069   0.833210  67.181666
162     2   1.855889   2.592701  66.094063
163     4   2.734589   4.345599  69.793672
164     2   2.364828   3.888146  66.192492
165     1   2.532774   4.483451  65.297750
166     2   2.673629   4.424580  67.438164
167     1   3.065992   5.434717  67.526128
168     2   2.464113   3.681175  68.602987
169     4  -0.067000   2.289393  64.323273
170     4   1.764624   0.469689  64.524728
171     1   1.335952   3.435800  71.989063
172     2   2.403897   3.227892  71.973375
173     2   3.217271   3.603381  70.893749
174     4   1.981058   0.508776  74.438863
175     2   4.588098   3.335187  70.925770
176     1   5.203417   3.641891  70.081997
177     2   5.158607   2.688835  72.020121
178     1   6.228157   2.483570  72.034015
179     2   4.364407   2.294866  73.095882
180     1   4.800380   1.791182  73.958143
181     2   2.998255   2.571621  73.068450
182     3   1.931476   1.976358  74.431677
183     1   2.948268   1.361567  79.218165
184     2   3.096092   2.023028  78.364425
185     2   2.566562   1.661041  77.124082
186     1   2.036886   0.715148  77.025583
187     2   2.729315   2.490401  76.005751
188     4   4.425156   3.618924  79.693370
189     2   3.445750   3.680622  76.152861
190     1   3.581660   4.345784  75.302816
191     2   3.995463   4.036762  77.385193
192     1   4.549512   4.967756  77.478171
193     1   1.109078   3.307261  82.878369
194     2   2.129253   3.091099  82.563022
195     2   2.595828   3.525690  81.321411
196     1   1.940585   4.112234  80.680000
197     2   3.889187   3.184595  80.910000
198     2   4.717249   2.454314  81.773246
199     1   5.711596   2.182071  81.429964
200     2   4.238426   1.997956  83.002607
201     1   4.863991   1.353197  83.619441
202     2   2.931396   2.310023  83.391820
203     3   2.119420   1.410971  84.747619
204     1   2.571341   1.275633  89.615346
205     2   2.721634   1.881209  88.723313
206     2   2.405245   1.363538  87.469635
207     1   2.039417   0.341366  87.386362
208     2   2.573347   2.149145  86.322482
209     4   3.490341   3.811241  90.028635
210     2   3.065793   3.447486  86.431104
211     1   3.216550   4.050528  85.537621
212     2   3.381002   3.967566  87.681303
213     1   3.775091   4.975664  87.777562
214     2   3.207872   3.188980  88.829106
215     4   0.676026   1.578480  84.560474
216     4   2.734695   0.083989  84.754507
217     2   3.814417   3.220053 118.989077
218     1   2.230837   2.962768  92.265285
219     2   3.302674   2.777237  92.230319
220     2   4.055172   3.098681  91.095452
221     4   3.300297   0.080775  94.683559
222     2   5.428118   2.850864  91.067037
223     1   6.004547   3.117682  90.182893
224     2   6.062562   2.293050  92.176606
225     1   7.137264   2.114816  92.165173
226     2   5.332233   1.955211  93.313942
227     1   5.814594   1.486247  94.171310
228     2   3.958544   2.201013  93.327834
229     3   2.969139   1.502222  94.679403
230     1   2.993667   1.275007  99.544375
231     2   3.312880   1.870780  98.692536
232     2   3.113755   1.392053  97.397204
233     1   2.654184   0.414177  97.257959
234     2   3.497627   2.154835  96.285218
235     4   4.253377   3.627854 100.128987
236     2   4.117542   3.390533  96.481226
237     1   4.421892   4.002860  95.634022
238     2   4.363600   3.846560  97.777386
239     1   4.876198   4.794337  97.934267
240     2   3.942946   3.104381  98.886309
241     4   1.594049   1.950369  94.483444
242     1   0.538323   3.526811 102.820257
243     2   1.584633   3.274879 102.656212
244     2   2.219569   3.595626 101.458651
245     1   1.680463   4.115551 100.670651
246     2   3.552710   3.227549 101.266162
247     4   0.663146   2.686989 114.735983
248     2   4.250793   2.536692 102.260118
249     1   5.284526   2.247159 102.086935
250     2   3.611012   2.200976 103.449011
251     1   4.135928   1.621077 104.205079
252     2   2.280178   2.581901 103.644781
253     3   1.328677   1.872303 105.001003
254     1   1.768480   1.798149 109.896182
255     2   1.956401   2.378606 108.993344
256     2   1.653670   1.841255 107.737138
257     1   1.251069   0.833210 107.661666
258     2   1.855889   2.592701 106.574063
259     4   2.734589   4.345599 110.273672
260     2   2.364828   3.888146 106.672492
261     1   2.532774   4.483451 105.777750
262     2   2.673629   4.424580 107.918164
263     1   3.065992   5.434717 108.006128
264     2   2.464113   3.681175 109.082987
265     4  -0.067000   2.289393 104.803273
266     4   1.764624   0.469689 105.004728
267     1   1.335952   3.435800 112.469063
268     2   2.403897   3.227892 112.453375
269     2   3.217271   3.603381 111.373749
270     4   1.981058   0.508776 114.918863
271     2   4.588098   3.335187 111.405770
272     1   5.203417   3.641891 110.561997
273     2   5.158607   2.688835 112.500121
274     1   6.228157   2.483570 112.514015
275     2   4.364407   2.294866 113.575882
276     1   4.800380   1.791182 114.438143
277     2   2.998255   2.571621 113.548450
278     3   1.931476   1.976358 114.911677
279     1   2.948268   1.361567 119.698165
280     2   3.096092   2.023028 118.844425
281     2   2.566562   1.661041 117.604082
282     1   2.036886   0.715148 117.505583
283     2   2.729315   2.490401 116.485751
284     4   4.425156   3.618924 120.173370
285     2   3.445750   3.680622 116.632861
286     1   3.581660   4.345784 115.782816
287     2   3.995463   4.036762 117.865193
288     1   4.549512   4.967756 117.958171
289     1   1.109078   3.307261 123.358369
290     2   2.129253   3.091099 123.043022
291     2   2.595828   3.525690 121.801411
292     1   1.940585   4.112234 121.160000
293     2   3.889187   3.184595 121.390000
294     2   4.717249   2.454314 122.253246
295     1   5.711596   2.182071 121.909964
296     2   4.238426   1.997956 123.482607
297     1   4.863991   1.353197 124.099441
298     2   2.931396   2.310023 123.871820
299     3   2.119420   1.410971 125.227619
300     1   2.571341   1.275633 130.095346
301     2   2.721634   1.881209 129.203313
302     2   2.405245   1.363538 127.949635
303     1   2.039417   0.341366 127.866362
304     2   2.573347   2.149145 126.802482
305     4   3.490341   3.811241 130.508635
306     2   3.065793   3.447486 126.911104
307     1   3.216550   4.050528 126.017621
308     2   3.381002   3.967566 128.161303
309     1   3.775091   4.975664 128.257562
310     2   3.207872   3.188980 129.309106
311     4   0.676026   1.578480 125.040474
312     4   2.734695   0.083989 125.234507
313     2   3.814417   3.220053 159.469077
314     1   2.230837   2.962768 132.745285
315     2   3.302674   2.777237 132.710319
316     2   4.055172   3.098681 131.575452
317     4   3.300297   0.080775 135.163559
318     2   5.428118   2.850864 131.547037
319     1   6.004547   3.117682 130.662893
320     2   6.062562   2.293050 132.656606
321     1   7.137264   2.114816 132.645173
322     2   5.332233   1.955211 133.793942
323     1   5.814594   1.486247 134.651310
324     2   3.958544   2.201013 133.807834
325     3   2.969139   1.502222 135.159403
326     1   2.993667   1.275007 140.024375
327     2   3.312880   1.870780 139.172536
328     2   3.113755   1.392053 137.877204
329     1   2.654184   0.414177 137.737959
330     2   3.497627   2.154835 136.765218
331     4   4.253377   3.627854 140.608987
332     2   4.117542   3.390533 136.961226
333     1   4.421892   4.002860 136.114022
334     2   4.363600   3.846560 138.257386
335     1   4.876198   4.794337 138.414267
336     2   3.942946   3.104381 139.366309
337     4   1.594049   1.950369 134.963444
338     1   0.538323   3.526811 143.300257
339     2   1.584633   3.274879 143.136212
340     2   2.219569   3.595626 141.938651
341     1   1.680463   4.115551 141.150651
342     2   3.552710   3.227549 141.746162
343     4   0.663146   2.686989 155.215983
344     2   4.250793   2.536692 142.740118
345     1   5.284526   2.247159 142.566935
346     2   3.611012   2.200976 143.929011
347     1   4.135928   1.621077 144.685079
348     2   2.280178   2.581901 144.124781
349     3   1.328677   1.872303 145.481003
350     1   1.768480   1.798149 150.376182
351     2   1.956401   2.378606 149.473344
352     2   1.653670   1.841255 148.217138
353     1   1.251069   0.833210 148.141666
354     2   1.855889   2.592701 147.054063
355     4   2.734589   4.345599 150.753672
356     2   2.364828   3.888146 147.152492
357     1   2.532774   4.483451 146.257750
358     2   2.673629   4.424580 148.398164
359     1   3.065992   5.434717 148.486128
360     2   2.464113   3.681175 149.562987
361     4  -0.067000   2.289393 145.283273
362     4   1.764624   0.469689 145.484728
363     1   1.335952   3.435800 152.949063
364     2   2.403897   3.227892 152.933375
365     2   3.217271   3.603381 151.853749
366     4   1.981058   0.508776 155.398863
367     2   4.588098   3.335187 151.885770
368     1   5.203417   3.641891 151.041997
369     2   5.158607   2.688835 152.980121
370     1   6.228157   2.483570 152.994015
371     2   4.364407   2.294866 154.055882
372     1   4.800380   1.791182 154.918143
373     2   2.998255   2.571621 154.028450
374     3   1.931476   1.976358 155.391677
375     1   2.948268   1.361567 160.178165
376     2   3.096092   2.023028 159.324425
377     2   2.566562   1.661041 158.084082
378     1   2.036886   0.715148 157.985583
379     2   2.729315   2.490401 156.965751
380     4   4.425156   3.618924 160.653370
381     2   3.445750   3.680622 157.112861
382     1   3.581660   4.345784 156.262816
383     2   3.995463   4.036762 158.345193
384     1   4.549512   4.967756 158.438171
385     1   1.109078   3.307261 163.838369
386     2   2.129253   3.091099 163.523022
387     2   2.595828   3.525690 162.281411
388     1   1.940585   4.112234 161.640000
389     2   3.889187   3.184595 161.870000
390     2   4.717249   2.454314 162.733246
391     1   5.711596   2.182071 162.389964
392     2   4.238426   1.997956 163.962607
393     1   4.863991   1.353197 164.579441
394     2   2.931396   2.310023 164.351820
395     3   2.119420   1.410971 165.707619
396     1   2.571341   1.275633 170.575346
397     2   2.721634   1.881209 169.683313
398     2   2.405245   1.363538 168.429635
399     1   2.039417   0.341366 168.346362
400     2   2.573347   2.149145 167.282482
401     4   3.490341   3.811241 170.988635
402     2   3.065793   3.447486 167.391104
403     1   3.216550   4.050528 166.497621
404     2   3.381002   3.967566 168.641303
405     1   3.775091   4.975664 168.737562
406     2   3.207872   3.188980 169.789106
407     4   0.676026   1.578480 165.520474
408     4   2.734695   0.083989 165.714507
409     2   3.814417   3.220053 199.949077
410     1   2.230837   2.962768 173.225285
411     2   3.302674   2.777237 173.190319
412     2   4.055172   3.098681 172.055452
413     4   3.300297   0.080775 175.643559
414     2   5.428118   2.850864 172.027037
415     1   6.004547   3.117682 171.142893
416     2   6.062562   2.293050 173.136606
417     1   7.137264   2.114816 173.125173
418     2   5.332233   1.955211 174.273942
419     1   5.814594   1.486247 175.131310
420     2   3.958544   2.201013 174.287834
421     3   2.969139   1.502222 175.639403
422     1   2.993667   1.275007 180.504375
423     2   3.312880   1.870780 179.652536
424     2   3.113755   1.392053 178.357204
425     1   2.654184   0.414177 178.217959
426     2   3.497627   2.154835 177.245218
427     4   4.253377   3.627854 181.088987
428     2   4.117542   3.390533 177.441226
429     1   4.421892   4.002860 176.594022
430     2   4.363600   3.846560 178.737386
431     1   4.876198   4.794337 178.894267
432     2   3.942946   3.104381 179.846309
433     4   1.594049   1.950369 175.443444
434     1   0.538323   3.526811 183.780257
435     2   1.584633   3.274879 183.616212
436     2   2.219569   3.595626 182.418651
437     1   1.680463   4.115551 181.630651
438     2   3.552710   3.227549 182.226162
439     4   0.663146   2.686989 195.695983
440     2   4.250793   2.536692 183.220118
441     1   5.284526   2.247159 183.046935
442     2   3.611012   2.200976 184.409011
443     1   4.135928   1.621077 185.165079
444     2   2.280178   2.581901 184.604781
445     3   1.328677   1.872303 185.961003
446     1   1.768480   1.798149 190.856182
447     2   1.956401   2.378606 189.953344
448     2   1.653670   1.841255 188.697138
449     1   1.251069   0.833210 188.621666
450     2   1.855889   2.592701 187.534063
451     4   2.734589   4.345599 191.233672
452     2   2.364828   3.888146 187.632492
453     1   2.532774   4.483451 186.737750
454     2   2.673629   4.424580 188.878164
455     1   3.065992   5.434717 188.966128
456     2   2.464113   3.681175 190.042987
457     4  -0.067000   2.289393 185.763273
458     4   1.764624   0.469689 185.964728
459     1   1.335952   3.435800 193.429063
460     2   2.403897   3.227892 193.413375
461     2   3.217271   3.603381 192.333749
462     4   1.981058   0.508776 195.878863
463     2   4.588098   3.335187 192.365770
464     1   5.203417   3.641891 191.521997
465     2   5.158607   2.688835 193.460121
466     1   6.228157   2.483570 193.474015
467     2   4.364407   2.294866 194.535882
468     1   4.800380   1.791182 195.398143
469     2   2.998255   2.571621 194.508450
470     3   1.931476   1.976358 195.871677
471     1   2.948268   1.361567 200.658165
472     2   3.096092   2.023028 199.804425
473     2   2.566562   1.661041 198.564082
474     1   2.036886   0.715148 198.465583
475     2   2.729315   2.490401 197.445751
476     4   4.425156   3.618924 201.133370
477     2   3.445750   3.680622 197.592861
478     1   3.581660   4.345784 196.742816
479     2   3.995463   4.036762 198.825193
480     1   4.549512   4.967756 198.918171
481     1   1.109078   3.307261 204.318369
482     2   2.129253   3.091099 204.003022
483     2   2.595828   3.525690 202.761411
484     1   1.940585   4.112234 202.120000
485     2   3.889187   3.184595 202.350000
486     2   4.717249   2.454314 203.213246
487     1   5.711596   2.182071 202.869964
488     2   4.238426   1.997956 204.442607
489     1   4.863991   1.353197 205.059441
490     2   2.931396   2.310023 204.831820
491     3   2.119420   1.410971 206.187619
492     1   2.571341   1.275633 211.055346
493     2   2.721634   1.881209 210.163313
494     2   2.405245   1.363538 208.909635
495     1   2.039417   0.341366 208.826362
496     2   2.573347   2.149145 207.762482
497     4   3.490341   3.811241 211.468635
498     2   3.065793   3.447486 207.871104
499     1   3.216550   4.050528 206.977621
500     2   3.381002   3.967566 209.121303
501     1   3.775091   4.975664 209.217562
502     2   3.207872   3.188980 210.269106
503     4   0.676026   1.578480 206.000474
504     4   2.734695   0.083989 206.194507
505     2   3.814417   3.220053 240.429077
506     1   2.230837   2.962768 213.705285
507     2   3.302674   2.777237 213.670319
508     2   4.055172   3.098681 212.535452
509     4   3.300297   0.080775 216.123559
510     2   5.428118   2.850864 212.507037
511     1   6.004547   3.117682 211.622893
512     2   6.062562   2.293050 213.616606
513     1   7.137264   2.114816 213.605173
514     2   5.332233   1.955211 214.753942
515     1   5.814594   1.486247 215.611310
516     2   3.958544   2.201013 214.767834
517     3   2.969139   1.502222 216.119403
518     1   2.993667   1.275007 220.984375
519     2   3.312880   1.870780 220.132536
520     2   3.113755   1.392053 218.837204
521     1   2.654184   0.414177 218.697959
522     2   3.497627   2.154835 217.725218
523     4   4.253377   3.627854 221.568987
524     2   4.117542   3.390533 217.921226
525     1   4.421892   4.002860 217.074022
526     2   4.363600   3.846560 219.217386
527     1   4.876198   4.794337 219.374267
528     2   3.942946   3.104381 220.326309
529     4   1.594049   1.950369 215.923444
530     1   0.538323   3.526811 224.260257
531     2   1.584633   3.274879 224.096212
532     2   2.219569   3.595626 222.898651
533     1   1.680463   4.115551 222.110651
534     2   3.552710   3.227549 222.706162
535     4   0.663146   2.686989 236.175983
536     2   4.250793   2.536692 223.700118
537     1   5.284526   2.247159 223.526935
538     2   3.611012   2.200976 224.889011
539     1   4.135928   1.621077 225.645079
540     2   2.280178   2.581901 225.084781
541     3   1.328677   1.872303 226.441003
542     1   1.768480   1.798149 231.336182
543     2   1.956401   2.378606 230.433344
544     2   1.653670   1.841255 229.177138
545     1   1.251069   0.833210 229.101666
546     2   1.855889   2.592701 228.014063
547     4   2.734589   4.345599 231.713672
548     2   2.364828   3.888146 228.112492
549     1   2.532774   4.483451 227.217750
550     2   2.673629   4.424580 229.358164
551     1   3.065992   5.434717 229.446128
552     2   2.464113   3.681175 230.522987
553     4  -0.067000   2.289393 226.243273
554     4   1.764624   0.469689 226.444728
555     1   1.335952   3.435800 233.909063
556     2   2.403897   3.227892 233.893375
557     2   3.217271   3.603381 232.813749
558     4   1.981058   0.508776 236.358863
559     2   4.588098   3.335187 232.845770
560     1   5.203417   3.641891 232.001997
561     2   5.158607   2.688835 233.940121
562     1   6.228157   2.483570 233.954015
563     2   4.364407   2.294866 235.015882
564     1   4.800380   1.791182 235.878143
565     2   2.998255   2.571621 234.988450
566     3   1.931476   1.976358 236.351677
567     1   2.948268   1.361567 241.138165
568     2   3.096092   2.023028 240.284425
569     2   2.566562   1.661041 239.044082
570     1   2.036886   0.715148 238.945583
571     2   2.729315   2.490401 237.925751
572     4   4.425156   3.618924 241.613370
573     2   3.445750   3.680622 238.072861
574     1   3.581660   4.345784 237.222816
575     2   3.995463   4.036762 239.305193
576     1   4.549512   4.967756 239.398171
577     1   1.109078   3.307261 244.798369
578     2   2.129253   3.091099 244.483022
579     2   2.595828   3.525690 243.241411
580     1   1.940585   4.112234 242.600000
581     2   3.889187   3.184595 242.830000
582     2   4.717249   2.454314 243.693246
583     1   5.711596   2.182071 243.349964
584     2   4.238426   1.997956 244.922607
585     1   4.863991   1.353197 245.539441
586     2   2.931396   2.310023 245.311820
587     3   2.119420   1.410971 246.667619
588     1   2.571341   1.275633 251.535346
589     2   2.721634   1.881209 250.643313
590     2   2.405245   1.363538 249.389635
591     1   2.039417   0.341366 249.306362
592     2   2.573347   2.149145 248.242482
593     4   3.490341   3.811241 251.948635
594     2   3.065793   3.447486 248.351104
595     1   3.216550   4.050528 247.457621
596     2   3.381002   3.967566 249.601303
597     1   3.775091   4.975664 249.697562
598     2   3.207872   3.188980 250.749106
599     4   0.676026   1.578480 246.480474
600     4   2.734695   0.083989 246.674507
601     2   3.814417   3.220053 280.909077
602     1   2.230837   2.962768 254.185285
603     2   3.302674   2.777237 254.150319
604     2   4.055172   3.098681 253.015452
605     4   3.300297   0.080775 256.603559
606     2   5.428118   2.850864 252.987037
607     1   6.004547   3.117682 252.102893
608     2   6.062562   2.293050 254.096606
609     1   7.137264   2.114816 254.085173
610     2   5.332233   1.955211 255.233942
611     1   5.814594   1.486247 256.091310
612     2   3.958544   2.201013 255.247834
613     3   2.969139   1.502222 256.599403
614     1   2.993667   1.275007 261.464375
615     2   3.312880   1.870780 260.612536
616     2   3.113755   1.392053 259.317204
617     1   2.654184   0.414177 259.177959
618     2   3.497627   2.154835 258.205218
619     4   4.253377   3.627854 262.048987
620     2   4.117542   3.390533 258.401226
621     1   4.421892   4.002860 257.554022
622     2   4.363600   3.846560 259.697386
623     1   4.876198   4.794337 259.854267
624     2   3.942946   3.104381 260.806309
625     4   1.594049   1.950369 256.403444
626     1   0.538323   3.526811 264.740257
627     2   1.584633   3.274879 264.576212
628     2   2.219569   3.595626 263.378651
629     1   1.680463   4.115551 262.590651
630     2   3.552710   3.227549 263.186162
631     4   0.663146   2.686989 276.655983
632     2   4.250793   2.536692 264.180118
633     1   5.284526   2.247159 264.006935
634     2   3.611012   2.200976 265.369011
635     1   4.135928   1.621077 266.125079
636     2   2.280178   2.581901 265.564781
637     3   1.328677   1.872303 266.921003
638     1   1.768480   1.798149 271.816182
639     2   1.956401   2.378606 270.913344
640     2   1.653670   1.841255 269.657138
641     1   1.251069   0.833210 269.581666
642     2   1.855889   2.592701 268.494063
643     4   2.734589   4.345599 272.193672
644     2   2.364828   3.888146 268.592492
645     1   2.532774   4.483451 267.697750
646     2   2.673629   4.424580 269.838164
647     1   3.065992   5.434717 269.926128
648     2   2.464113   3.681175 271.002987
649     4  -0.067000   2.289393 266.723273
650     4   1.764624   0.469689 266.924728
651     1   1.335952   3.435800 274.389063
652     2   2.403897   3.227892 274.373375
653     2   3.217271   3.603381 273.293749
654     4   1.981058   0.508776 276.838863
655     2   4.588098   3.335187 273.325770
656     1   5.203417   3.641891 272.481997
657     2   5.158607   2.688835 274.420121
658     1   6.228157   2.483570 274.434015
659     2   4.364407   2.294866 275.495882
660     1   4.800380   1.791182 276.358143
661     2   2.998255   2.571621 275.468450
662     3   1.931476   1.976358 276.831677
663     1   2.948268   1.361567 281.618165
664     2   3.096092   2.023028 280.764425
665     2   2.566562   1.661041 279.524082
666     1   2.036886   0.715148 279.425583
667     2   2.729315   2.490401 278.405751
668     4   4.425156   3.618924 282.093370
669     2   3.445750   3.680622 278.552861
670     1   3.581660   4.345784 277.702816
671     2   3.995463   4.036762 279.785193
672     1   4.549512   4.967756 279.878171
673     1   1.109078   3.307261 285.278369
674     2   2.129253   3.091099 284.963022
675     2   2.595828   3.525690 283.721411
676     1   1.940585   4.112234 283.080000
677     2   3.889187   3.184595 283.310000
678     2   4.717249   2.454314 284.173246
679     1   5.711596   2.182071 283.829964
680     2   4.238426   1.997956 285.402607
681     1   4.863991   1.353197 286.019441
682     2   2.931396   2.310023 285.791820
683     3   2.119420   1.410971 287.147619
684     1   2.571341   1.275633 292.015346
685     2   2.721634   1.881209 291.123313
686     2   2.405245   1.363538 289.869635
687     1   2.039417   0.341366 289.786362
688     2   2.573347   2.149145 288.722482
689     4   3.490341   3.811241 292.428635
690     2   3.065793   3.447486 288.831104