LAMMPS data file via write_data, version 19 Nov 2024, timestep = 2000, units = real

1032 atoms
4 atom types

0.6606068888031253 7.339393111193953 xlo xhi
5.780310277025698 64.21968972298063 ylo yhi
3.79766385200762 42.192336147994446 zlo zhi
0 0 0 xy xz yz

Masses

1 12.0107
2 1.00794
3 15.999
4 14.0067

Atoms # charge

275 3 -0.5156539494010937 2.6892932630223982 11.288905385902108 7.1414407403721345 -1 0 1
112 4 -0.4281831622712721 4.019018008062401 6.469818026876774 4.604592078913667 -1 0 1
274 1 -0.1465440178939277 4.587525158984894 10.49958847684957 5.747254541255113 -1 0 1
273 1 0.2508829964136682 3.546111741058762 11.455969323326887 6.098804276421536 -1 0 1
271 1 -0.06938815883830197 5.449198199823506 10.675558579551456 4.650838644029924 -1 0 1
154 2 0.1069259523923733 1.8299841406789654 9.628434989194451 11.221764669548389 -1 0 0
272 2 0.1814462800033887 6.31752207873741 10.03782617577308 4.4201701995722695 -1 0 1
147 2 0.1419913312405699 1.2230965918552823 10.058882099768173 8.843884560357914 -1 0 0
270 1 -0.1214069612622351 3.4225370260868555 12.694535701067018 5.419818193089393 -1 0 1
123 1 -0.1161804641625138 4.3201342080838785 5.870863924749289 8.821457594835778 -1 0 1
267 1 -0.02927040227248951 4.204128703519466 12.882645110246564 4.226518373121698 -1 0 1
139 2 0.1346306268667747 5.241045812813789 11.640629688468863 8.115905101665595 -1 0 0
150 1 -0.1248377125556645 2.5524702302923092 10.036072806910614 10.570260659843193 -1 0 0
153 2 0.1156603037828112 2.7296862153803043 8.192450347142836 12.689132205319952 -1 0 0
143 2 0.1424571613923729 5.857797746115057 11.085594742502513 10.380613147746324 -1 0 0
302 2 0.1507530771388537 2.0448545783472865 12.92077864952763 10.377064751212053 -1 0 0
114 1 0.1909295255901788 4.021952919958007 6.016960185229927 6.014420015672391 -1 0 1
276 2 0.1572835113436221 4.757842335984833 9.618978014762414 6.3466646155541735 -1 0 1
121 2 0.1287621456978349 2.3119707586930884 6.82808029279011 8.924249511441875 -1 0 1
146 1 -0.1551310252233733 2.1832155567557794 10.331207580045135 9.223426142165753 -1 0 0
144 2 0.1461014175966393 6.267181795561518 10.810636185340702 12.390178348949682 -1 0 0
141 1 0.258077698659928 3.155739464939661 10.92509648077441 8.329810923180213 -1 0 0
145 1 -0.09038536184135429 4.821467618838296 10.897019528353056 10.136759219534724 -1 0 0
140 1 -0.1761512091278887 4.466228385894152 11.231263374654148 8.811412508022606 -1 0 0
120 1 -0.09712659065404614 3.088182545551536 6.39432750660358 8.24905518705106 -1 0 1
148 1 -0.009556450427341181 3.9061107974558213 10.273663520672933 11.084286431473632 -1 0 0
111 1 0.3937756251966515 3.082126111825888 7.629787889218952 3.9884547875642045 -1 0 1
113 3 -0.445618953420063 2.112029646205956 8.168537628261713 4.458759951073597 -1 0 1
116 2 0.1960096382400145 2.0378023870007813 6.9404121508201495 6.465065484520025 -1 0 1
152 1 -0.3252403286849371 5.856436230520163 9.835987898167968 12.673478016427849 -1 0 0
149 1 -0.3103776233325982 3.835631207870055 8.306697334878319 12.754648898329307 -1 0 0
155 1 0.01626467499920575 4.273932672302243 9.838160146435026 12.474103885784693 -1 0 0
142 2 0.1375997040451487 4.248931124232415 7.566582311008141 12.060776097947196 -1 0 0
118 1 -0.09871864955563965 2.966656433629684 6.51305573481922 6.838379628126832 -1 0 1
157 2 0.1188058278839323 6.250862390713079 9.13239680673671 11.900086852782303 -1 0 0
128 2 0.167509028947567 4.274041886027222 5.886419032745225 9.927511418633959 -1 0 1
179 3 -0.4770573438409647 6.703694750712161 10.93164151545503 19.81080813800475 -1 0 0
178 1 0.3800412022012164 6.272095948845449 11.969565331381219 20.202197654612867 -1 0 0
173 1 -0.1499402681633059 4.216114733136363 12.253606821032715 18.504872841609888 -1 0 0
166 2 0.1611066916189037 4.8179082859876665 12.856388889513386 16.054336190243227 -1 0 0
167 1 0.2525888024503262 2.8110389558948223 11.970423802612423 15.986096941445577 -1 0 0
45 2 0.2037923226716373 6.780793182405921 7.305777770853041 20.065749393713592 -1 0 0
176 1 -0.04764962742474854 5.070413921330449 12.703280117889966 19.56195693430268 -1 0 0
51 2 0.1612170151263161 5.3998479242147965 9.0154344264304 21.091760979176186 -1 0 0
165 2 0.1505691627742326 0.9128082602531444 11.050892888698382 15.487174666902318 -1 0 0
172 2 0.1643844611013707 4.320546178777725 11.225766074086652 18.097838282054244 -1 0 0
53 1 -0.1095774031719094 6.800746906138997 9.508918766716121 22.761862215211963 -1 0 0
44 3 -0.4386788704402001 4.800587861292719 6.516312243770672 22.16775612188416 0 0 0
163 1 -0.1454562478627219 1.9195858719920544 11.12240601541281 15.169846789513457 -1 0 0
188 1 -0.08941027099919777 3.486688942736742 11.466742311892697 22.370396218274642 0 0 0
168 3 -0.4871963682493891 2.3630097799568106 12.808887522236589 16.90233503038364 -1 0 0
47 1 -0.08387635149557293 7.159334715131877 7.830178921931925 20.981633674167483 -1 0 0
161 1 -0.1179830176236197 2.3367267976718242 10.452886023569889 14.020037277261508 -1 0 0
50 1 -0.04316946645837978 6.31971510682207 8.78507733165849 21.610584998911015 -1 0 0
164 1 -0.1507284351911273 4.162830682563648 12.203470113143002 15.484050050523823 -1 0 0
162 1 -0.1084125809686685 4.607939865206362 11.554634295146045 14.317828714226486 -1 0 0
183 2 0.1890444835344381 2.1373477007144506 11.03860284513318 20.75617745348987 0 0 0
49 1 -0.1484082144810711 2.15944784295253 8.237667690821127 22.645385754887766 0 0 0
160 2 0.1440110885433799 5.628663575668311 11.747237565991917 13.924823790116065 -1 0 0
46 1 0.1798170051430174 1.8040448670159293 7.517259943509765 21.485549072309556 0 0 0
185 1 -0.1148743258771349 2.343819429441787 11.69551507361341 21.557281625002336 0 0 0
189 2 0.1323188793582507 4.084059286916958 10.594891613912695 22.190148275065013 0 0 0
43 4 -0.4153806725152949 2.719269397928806 6.583286032415598 20.79882163844444 0 0 0
151 2 0.1375652989001581 4.130244192777667 7.994727970928806 13.788922982081099 -1 0 0
184 1 0.1895230538274016 1.5482883952944566 12.869044183137804 21.861584251453408 0 0 0
158 1 -0.003772879922786968 3.700230799037367 10.647901497095013 13.596231179737842 -1 0 0
42 1 0.3724560393652775 4.032864669739449 5.959086314842799 21.405276836992662 0 0 0
181 4 -0.4335314940638734 6.907916100668066 12.99279619098805 21.2262842555756 -1 0 0
156 2 0.124427995454037 6.129484668292976 9.64102481703775 13.725014276707476 -1 0 0
159 2 0.1006695453301484 1.632834876152621 9.74045129447967 13.489348391683382 -1 0 0
70 3 -0.5259964546012793 4.545424008960319 10.932208737326203 29.98279488058196 0 0 0
65 2 0.1933129206642398 5.009669463021902 9.846225414030467 27.708485132360885 0 0 0
60 1 -0.04190100310802146 1.6680991081849625 10.874591141081282 26.85616911127059 0 0 0
59 1 0.3938545448142995 3.0742341274492495 9.398615947204995 25.440179731108305 0 0 0
58 3 -0.4225844543822288 3.7337484621557047 8.420013927051023 25.282833258816876 0 0 0
71 1 -0.163924978070409 3.0489831392248283 9.469699915551864 31.34905874155832 0 0 0
62 2 0.1619452524728377 7.01117356271488 11.904767080974981 28.263686349972453 -1 0 0
68 2 0.141994867344616 1.9712864987498533 11.949778728483516 30.130292807483812 0 0 0
67 1 0.2311422513025055 3.5759879718077956 10.960317506639562 28.965221750614873 0 0 0
69 2 0.1403675520872084 2.1545414042737834 9.523695582699272 30.685779759903838 0 0 0
52 1 0.1886355999439671 1.385304930010634 9.232812362347996 23.3539628968039 0 0 0
64 1 -0.1010349114537995 4.0435893974420525 10.378140145931434 27.73989377812295 0 0 0
55 4 -0.4129704407656873 1.805250375543325 9.854900486595707 24.62604103294405 0 0 0
61 1 -0.0277815937971256 3.0573220935614525 10.231247179879887 26.71324298412766 0 0 0
78 2 0.1471305059404055 6.186205074994858 10.889753128256281 32.039534620622675 0 0 0
54 3 -0.4399019675035796 6.356949469781819 10.970026870274303 25.535267449668794 -1 0 0
72 1 0.2625890126000679 4.238685623207323 10.297144299854471 31.08009503673042 0 0 0
57 1 0.395896738239757 0.7997342812600958 10.580289606442616 25.66292501778268 0 0 0
66 1 -0.1651723028651592 2.289871833042919 11.476257505560632 29.16756363500234 0 0 0
63 1 -0.07761894919686463 1.3249929524003417 11.489830134644457 28.11403107584724 0 0 0
191 1 -0.1017892755738953 3.7715281739583264 12.364300915679223 23.48244683696606 0 0 0
77 1 -0.1443806984319817 5.330881765192739 10.20443172077233 32.069865954333146 0 0 0
194 2 0.2211015897343897 4.620368683642473 12.1353943244833 24.11364961625917 0 0 0
56 2 0.1849208931735445 6.162543541084217 10.240846342247512 23.203841384832543 -1 0 0
228 2 0.1354723109275786 4.537827233160222 12.86788964767213 32.16842666886346 1 0 0
76 1 -0.1045527716836387 3.0069303366855555 8.62531853052732 32.441191764231576 0 0 0
48 2 0.2308440337508616 3.169994895859197 7.964429174852649 23.039274102404853 0 0 0
73 2 0.1205048056632317 2.136239036808046 7.956055138681165 32.533307400815815 0 0 0
108 1 -0.0458632560472976 3.713928570424819 7.972046881633157 41.04899733501854 -1 0 0
79 1 -0.3037319212807624 3.693004120198149 5.998067295809702 34.06317093247537 0 0 0
89 1 -0.01743023271535021 3.144548749992367 7.857494690612782 35.65450487037445 0 0 0
107 1 -0.02761520988989902 5.0193925321124055 7.211830280007186 40.877970144979926 -1 0 0
75 2 0.1170324069466302 5.66685226797431 6.467566455415008 35.834023959409265 0 0 0
80 1 -0.01831335471907241 4.068167048810883 8.487142296406113 33.4254863655044 0 0 0
82 2 0.1460652822778373 2.614258053313273 5.853093835674558 33.83978919930115 0 0 0
105 1 -0.07174088639452626 3.36041765989641 9.062744635915607 40.173076754113865 -1 0 0
106 2 0.1917479567867569 2.496496268348965 9.722266197422815 40.36320108433395 -1 0 0
102 1 -0.1190351729444778 4.319853059978428 9.346605107992357 39.16200288430153 -1 0 0
99 3 -0.5158905560599408 6.367745436849811 9.061847278451854 37.95661928035442 -1 0 0
100 2 0.1932769594300357 4.191099158493991 10.274511917239796 38.54011201120818 -1 0 0
92 1 -0.1048111602424159 2.579595961864891 6.943899440924256 36.643165610844676 0 0 0
101 1 0.2597507237220326 5.547277677593565 8.609788376957262 38.93174571623551 -1 0 0
104 1 -0.1446681004236328 5.9104089069342045 7.500838673708781 39.8004822230521 -1 0 0
87 1 0.01239611321365029 4.103655237769177 7.476707043712689 34.574120279168454 0 0 0
103 2 0.1637914992010609 6.800315365529709 6.960683073344932 39.628658857761664 -1 0 0
88 2 0.1275070090137872 5.975390139098442 9.40827591384712 33.95983585557947 0 0 0
98 1 0.2458881281475435 0.8557170631078083 8.582352277027416 37.5021934681901 0 0 0
95 1 -0.1261549602203326 1.5519237018605554 9.541509155175742 36.68896200178172 0 0 0
93 1 -0.1058458501315404 2.63041327529725 9.219804786149107 35.836815966273946 0 0 0
97 2 0.1998908397523466 1.216969125487386 10.583313829357614 36.70535905679006 0 0 0
96 2 0.1334194227006653 1.1588045482625515 6.530992529721113 38.148250165480746 0 0 0
91 2 0.1409750469283106 3.0533856000269783 10.073271275464844 35.270113583754195 0 0 0
83 1 -0.1171258485377118 5.224525885246315 9.382431211571161 33.182350240059236 0 0 0
94 1 -0.1767958166516579 1.5062942036827998 7.27633530222223 37.50199925400848 0 0 0
241 2 0.1719794492262868 5.179558416124008 12.01644794648831 35.80854898649562 0 0 0
248 3 -0.4510160358525604 2.7361165289784677 12.725209427993875 37.32272592455969 0 0 0
90 2 0.1185338648654892 3.010165712076027 5.9055714499480025 36.64831989847718 0 0 0
86 2 0.1610011722316827 5.771461162006807 8.269376960610355 35.698140058071196 0 0 0
81 1 -0.3160381469019358 5.539915542182941 7.343392065688448 35.16268178041854 0 0 0
265 1 0.3909747648863173 5.960079990046111 12.238387309016078 40.9268193790718 -1 0 0
84 2 0.1249646081035097 6.286618078830934 7.176548020795695 34.3929448179001 0 0 0
264 3 -0.4344953122042812 6.968240987032557 11.75744051396902 40.51952379203382 -1 0 0
237 3 -0.5095887356571188 7.288967180126962 12.681436174929663 34.3072599048721 0 0 0
109 1 0.40716507160306 5.181380626586892 6.174693701877747 42.011754441192366 -1 0 0
232 1 -0.1378100379866511 2.6251263688289628 12.593483887186654 33.09215148218941 1 0 0
268 1 -0.05348057633427485 5.1737993769486685 11.826100151395668 42.18555201258761 -1 0 0
234 2 0.1561996734349829 2.907436306890007 11.706368461671552 33.61972291048633 1 0 0
242 1 -0.1215991056888226 5.278009458506546 13.068887724511033 35.639029313673944 0 0 0
291 3 -0.453346330218213 1.3856969692816978 17.481052642735207 5.061172710711823 0 0 0
288 2 0.1588384623344476 2.9339695659649268 18.537667694172377 7.4240312693547885 -1 0 0
292 1 0.002800876928124509 2.641543157200818 15.94410844316187 8.545774755907185 -1 0 0
290 1 0.3875506700664789 5.3788133279575145 19.708210180571 6.039702200604998 -1 0 0
278 1 -0.1005943630838881 4.736379231914464 15.539281550033905 7.261263252101804 -1 0 0
297 1 -0.05256204735644533 7.206410982974578 16.07312479085911 9.758146266980974 -2 0 0
320 1 -0.1054681004596011 3.319040180716639 16.996026701433607 12.37478368612292 -2 0 0
293 1 -0.09579633497547724 2.8176352460062395 14.572647416559052 9.099687930255701 -1 0 0
277 1 0.02406863703650207 3.6999037669278905 16.48898820479352 7.5943501324667455 -1 0 0
286 2 0.1236434369528226 4.711548220467563 14.559342887830038 7.668121629502833 -1 0 0
393 1 -0.1028671946849563 2.2017481621469193 20.10552892925606 4.073732978496658 0 0 1
325 2 0.1897541388581289 3.90027094429327 13.605380495393797 12.575205549545595 -2 0 0
300 3 -0.5017778825888153 5.901326954810816 13.313284463796732 11.562825595300934 -2 0 0
295 1 -0.04839087951702782 0.6874979870856788 14.681287034935904 10.235610522817204 -1 0 0
280 1 -0.03747121829681156 6.019889169313158 17.335010983376485 6.197843824452244 -1 0 0
322 1 0.1883864215007772 4.015108880622375 15.80229457743087 12.112776404625116 -2 0 0
305 1 0.3958960614561009 5.964722463589263 16.78036972731033 10.4118956098448 -2 0 0
299 4 -0.4412530715079051 5.2000613911951685 15.683135188935449 11.16619169926318 -2 0 0
269 2 0.1729924931288591 2.6461786875392974 13.451305591743367 5.803214657500586 -1 0 1
303 2 0.1580252085690525 1.2276426710803112 17.77787316790939 8.491369489249934 -1 0 0
324 1 -0.09623883683052112 3.4921699338659487 14.64462290354399 12.79526973186977 -2 0 0
298 1 0.4012161597038778 6.079299398935751 14.395561499246996 11.096116253446912 -2 0 0
301 2 0.1340930852341656 3.7937242571153766 14.067532864506514 8.928923854071122 -1 0 0
287 2 0.1608217880558675 6.739074298475048 15.295464695849377 6.370325767920759 -1 0 0
284 4 -0.4447698505389921 6.8544133881000935 19.568822817348455 5.447154291853723 -1 0 0
304 3 -0.4473183843655711 5.7547009790496695 17.953713710440795 10.379238262214141 -2 0 0
283 1 0.3959069568383026 7.103007239864274 18.063926468885775 5.415350881384551 -1 0 0
281 1 -0.0660030605843608 3.7566804557929427 17.858627548192025 7.200846913334139 -1 0 0
337 2 0.1904242970811997 3.612032184708528 17.880267552651013 11.80916278890012 -2 0 0
296 1 -0.08562277496869865 1.4635450873565718 16.739043841512256 8.883131674490723 -1 0 0
279 1 -0.06732933046481754 5.919120168282234 15.940732787272875 6.6454166250293385 -1 0 0
282 1 -0.04341386730987228 4.9528163202344295 18.32206146544098 6.571832108844843 -1 0 0
294 1 -0.07239938620215777 1.8765400874860374 13.940287081019672 9.955030867947727 -1 0 0
319 1 -0.1405273826248648 2.1905889364480355 17.151387385944425 13.26341744110865 -2 0 0
377 2 0.2118813878666258 2.5794744642278955 19.137432399026757 4.40899452364986 0 0 1
312 1 -0.1680267096086127 2.4484087077136873 18.494421725676553 17.347899874267505 -2 0 0
323 3 -0.4867101987013892 0.8372143539102371 16.09837201012717 14.982635504262955 -2 0 0
174 1 -0.0809663282373304 3.8527873403755364 14.941024946749637 19.676551086583896 -1 0 0
182 3 -0.4164188747109825 5.860099121542165 15.229044448387528 21.97978224530717 -1 0 0
327 2 0.1801473140486479 2.2190069616188355 13.815182167281801 14.27099365668066 -2 0 0
316 2 0.1854177197208512 3.53924831022639 18.331595211811454 21.270218118964088 -2 0 0
169 2 0.1699720758235514 2.260583474537062 15.01534065888393 18.123361863225107 -1 0 0
326 1 -0.1279541066917866 2.4744903111612473 14.728704719657314 13.755097358159855 -2 0 0
334 1 -0.1015918352118475 4.916339082956892 20.02557459421366 20.976437046675454 -2 0 0
311 1 -0.16940990569518 2.264424473742203 17.82601338986891 16.14870184210113 -2 0 0
329 2 0.1401803476491812 3.0083225507047655 18.006597633569505 15.369129024160566 -2 0 0
175 2 0.1592655011485506 3.707675477541505 15.935186279073179 20.163120782182805 -1 0 0
310 1 0.2451487103881144 1.1334859418895815 16.905341080999136 15.989717736609316 -2 0 0
308 2 0.1334297779968331 3.302036670215238 19.162704811354423 17.513909066315037 -2 0 0
177 1 -0.04268413592152136 4.905792688264773 14.076479220377406 20.16487658452626 -1 0 0
314 1 -0.1395772855963339 6.95868367224365 17.441477800685128 18.24879198458769 -3 0 0
309 1 -0.1384251614305115 6.821348205874596 16.736544497968513 17.05097839828573 -3 0 0
180 1 0.377412956502735 5.972077656245668 14.28472961925227 21.23591003278556 -1 0 0
187 1 -0.1187949704111896 1.940881996941165 13.793010409421866 22.913102355942907 0 0 0
330 2 0.1626760422182042 6.019854232373607 16.01452616813382 16.966728423924955 -3 0 0
171 1 -0.1313449349574624 3.0746479324157043 14.415728574665549 18.576170039547776 -1 0 0
170 1 0.2333773557635907 3.2002700143124754 13.119717642444007 17.978688573381866 -1 0 0
321 2 0.2111782763086859 5.652140919046461 19.542882209295755 21.6477120483767 -2 0 0
313 1 0.2507376550536147 1.4471396458155867 18.336760881646484 18.412055769769104 -2 0 0
328 1 0.2637855862788693 1.7949699281315896 15.985233164976647 14.018341813900095 -2 0 0
335 2 0.1667081822858131 6.204970734772285 17.311254184961967 19.037961916481244 -3 0 0
317 3 -0.4577685588955586 1.519929352303977 18.94817932449103 19.562537351233733 -2 0 0
285 1 0.2436300869097694 2.666448540915485 19.777657424248275 19.923898967124618 -2 0 0
336 1 -0.1264594677446499 3.670129207548562 19.29727798238758 20.733553787639313 -2 0 0
318 2 0.1623817430958421 1.7707382629073416 18.11112978727147 13.438102531148495 -2 0 0
211 2 0.1196623075837509 2.6472300534971396 17.457915638280404 31.318469130794707 1 0 0
199 1 -0.04359933166960363 5.125090063315854 16.268693003777486 25.826587079260264 0 0 0
222 2 0.1286443562384899 4.5000616718582265 16.42643610192897 32.17456609988251 1 0 0
214 1 -0.1409256378594882 2.3747345424234076 17.22347044957546 30.314936913126697 1 0 0
212 2 0.1408649640972151 5.297923350199909 14.86363679084332 28.846586715896073 1 0 0
203 2 0.149631834816515 6.705738297601904 16.098998585000203 27.382606264141863 0 0 0
224 2 0.1191105960612986 5.81012675269208 15.759731368134538 31.10633517849141 1 0 0
208 3 -0.4708709454043126 6.862703818723714 18.869235892413897 27.84703227633792 0 0 0
205 1 0.2663238579064822 6.051309174987837 18.240102872098802 27.01614202343642 0 0 0
229 2 0.1254588939493219 1.2953645519867139 15.701731149322784 30.96282099758972 1 0 0
196 3 -0.4194304031903915 5.360928462579389 13.885312706486628 25.738898419021602 0 0 0
201 1 -0.07862286788950754 4.067061984234394 18.597902040768126 25.411914421319356 0 0 0
223 2 0.1656583159806821 4.156615800534202 13.50443104141446 29.0081753365172 1 0 0
202 1 -0.1516344202176108 6.06818791818365 16.811239018694057 26.77650725517385 0 0 0
218 1 -0.01751686004468368 2.9289616831206726 16.08089902511842 29.595987199472876 1 0 0
233 1 -0.1894755666397183 0.7591862828571833 14.192091117170493 32.42027964622234 1 0 0
216 2 0.175608675319376 1.588009356400503 16.92334882071505 26.448703981437696 1 0 0
207 2 0.1583584572563847 1.1487207373659243 19.080467172582118 30.249773898459463 1 0 0
227 1 -0.0127719230832505 3.0477432589308417 14.434760411958234 31.49944747973608 1 0 0
226 2 0.1483993662499579 2.9733732569627467 15.138289908304493 27.603157801604368 1 0 0
209 1 -0.1152944858742952 1.5938933350549753 18.225784524829574 29.648057914042074 1 0 0
221 1 -0.1050495172376049 2.5889686522372437 15.998135901135624 28.18752073535294 1 0 0
204 1 -0.1011197789299593 5.062711259754272 19.045348806796845 26.33415442991936 0 0 0
210 1 0.2376581870305631 1.2569010039877213 18.062478297056757 28.243927723716162 1 0 0
215 1 -0.1590570206885777 1.8374991484263379 16.996101718070136 27.500954219706227 1 0 0
219 1 -0.3125220391077608 4.818586425216408 16.204437079061535 31.151789182454575 1 0 0
217 1 -0.3057044351365336 4.732500598230182 14.240442872119381 29.574090217870584 1 0 0
197 1 0.3805546001573772 4.772261658702989 14.872418844449676 25.37948074907252 0 0 0
192 3 -0.4297907223066484 2.3759163781065507 16.68482166876541 23.66227407112855 0 0 0
225 1 0.01363108493886262 3.79782903891995 15.182616486353082 30.485878399896123 1 0 0
213 2 0.1383538477936244 4.951268671796221 17.207497371323576 30.596754889913974 1 0 0
231 1 -0.1260082207497189 1.6601456065547882 14.894619011688732 31.590231146180717 1 0 0
193 4 -0.3992898621551523 3.4466966701488393 14.69059189159018 24.66170545358112 0 0 0
198 1 -0.04536700594590325 4.025843909622456 17.17528900572114 25.265997269152564 0 0 0
195 1 0.3742199899738515 3.1789090328723026 16.233438597983387 24.40059826569373 0 0 0
190 1 0.1894578133521456 3.0570174828136922 13.536113918592278 23.75975483536443 0 0 0
200 2 0.157594638491018 3.4127522557550987 19.23875008091514 24.805652219812373 0 0 0
206 2 0.184854541636085 5.215259419760288 20.149742071834673 26.40472786729268 0 0 0
220 2 0.1372349219668532 5.411089900510648 13.62781487226355 30.215329806257515 1 0 0
230 1 -0.1098487802724058 3.523544750079166 13.287198856869152 32.280279123312454 1 0 0
386 2 0.1683673203229333 4.512525738852967 20.055235037985412 31.206127613186244 -1 0 0
186 2 0.2489758212969936 1.3513643668313744 14.70358124113209 23.12703306217892 0 0 0
235 2 0.125182343010008 6.386394280573933 14.477516865021151 32.4831505788984 0 0 0
244 2 0.1474462300112759 5.944988199212782 17.005372645794733 35.161683081401435 0 0 0
250 4 -0.4353369583789264 2.245849927668164 15.150509338020896 37.05799870026148 0 0 0
256 1 -0.109236906772593 7.238178409800835 16.72241952854217 38.18720021242366 -1 0 0
246 1 -0.06069975246080625 4.409538827352385 15.478831710842057 35.794977868297124 0 0 0
388 2 0.1506337171578309 4.715042137589064 19.376375912414275 33.53953442031009 -1 0 0
259 2 0.1397658644419482 5.535652242730901 17.987749964981525 38.84722235315992 -1 0 0
236 1 0.2614340915268084 1.2892582473428584 13.157787673446482 33.28239811637528 1 0 0
239 1 0.2516686944067187 6.4940425962575254 13.5633947122856 35.01998635706097 0 0 0
247 1 0.4075948848896924 2.9596664778012944 13.774355781275123 36.827785931397614 0 0 0
245 1 -0.03694659387528332 4.286305344984655 13.98353188646974 36.06446901660158 0 0 0
263 1 0.3924132685619912 4.36556217594824 13.96790973136908 41.54483364977904 -1 0 0
261 1 -0.09469061269040024 5.235705386270682 15.838704672739802 39.234109806179106 -1 0 0
240 1 -0.1454487276254427 6.683646250665339 14.98459647162387 34.96611144003343 0 0 0
251 3 -0.458408475947793 3.090815312578646 17.350330581690663 36.523276206122574 0 0 0
262 4 -0.3996827965393207 5.236494214176419 13.534382232822477 40.37301994135744 -1 0 0
252 1 0.1902387593913878 1.1363981442647662 15.425510174518905 38.051172448655436 0 0 0
249 1 0.381620866627046 3.192658531401976 16.162635296242925 36.399052456486345 0 0 0
260 3 -0.4132632701884565 3.873651230096398 15.064746024696149 41.674344584484885 -1 0 0
253 2 0.2414806236285587 0.854326325715868 13.426698961432116 38.92702715644147 0 0 0
254 2 0.1854352588227997 1.0346164296516138 17.596335544524827 37.70607071196312 0 0 0
243 1 -0.08258037826778278 5.688827911713718 15.944029967016855 35.28349638012136 0 0 0
255 1 -0.1307206217317354 7.089544126646837 14.425420862804332 38.75418224133189 -1 0 0
266 2 0.2033999347006121 4.227299013576543 15.962069109816662 39.54438099343753 -1 0 0
238 2 0.1579824053925893 0.9175751332179802 15.424856040482066 34.63785325715239 1 0 0
258 1 -0.08691852273639739 5.955392295157186 16.996633728110154 38.80412903082512 -1 0 0
257 1 0.179995792280234 5.833997377139063 14.547956853283596 39.42171592120086 -1 0 0
394 2 0.1581376714485145 3.8438741177471134 20.37293183175347 40.99909530324743 0 0 0
387 1 -0.1465058355107428 5.010602714386501 20.354735580455106 33.251132965315925 -1 0 0
413 1 -0.09692851299259338 6.32850717015498 22.7623697082564 8.608273012151841 -2 0 0
408 2 0.1631140292233686 2.949437936760645 25.090203841905684 9.606016545895498 -1 0 0
399 1 -0.06584887234766498 3.151439809869117 23.718501822348504 5.972873488437688 -1 0 0
315 1 -0.1390164518407849 7.23418114719664 21.83127613872993 4.165814046000254 -1 0 1
417 1 -0.01233686028402342 6.149994959456601 24.496352200112515 10.895775140721156 -2 0 0
497 2 0.178017552913265 1.2874293106836827 25.905601110071682 4.602056830922025 0 0 1
418 1 0.3731497427059439 4.000635505752224 23.71926217939361 11.677119133957 -2 0 0
422 2 0.1639022136069941 4.433320602231708 21.90355971232453 9.210173356820228 -2 0 0
414 1 -0.06503577430747601 5.18399550892423 22.63938184597632 9.450591900849808 -2 0 0
398 1 -0.1033697092695952 2.027662492499023 23.348196273659216 6.705541776800153 -1 0 0
412 1 0.01158769249044557 0.720170609088681 23.729503377388856 8.887789853161795 -1 0 0
420 3 -0.4442525849529447 3.024359751251541 23.030237638072673 11.778467117541208 -2 0 0
400 1 -0.05269605231053127 4.257855332568569 24.575552380237674 6.402937201989424 -1 0 0
419 4 -0.4137604225876901 4.404725857828026 24.962321003594763 12.608566338513276 -2 0 0
397 1 0.01052622391911564 1.960733655779439 23.89233964896047 8.067356688290669 -1 0 0
421 2 0.1556505566842405 6.382214629727166 22.022658763343028 7.800861349672963 -2 0 0
411 3 -0.4863871129667087 5.751130011079253 24.779249758515242 4.620000769768367 -1 0 0
415 1 -0.04501349644921416 5.0309843856890435 23.50936204652281 10.610760545300412 -2 0 0
402 1 -0.03894384140291073 4.137751322597415 25.15871885491832 7.784223385686422 -1 0 0
407 2 0.168146386603226 3.2153239589526006 23.269098836016816 5.036657172473994 -1 0 0
406 2 0.1462885490821603 1.3275455332027115 22.61177196837949 6.297627843946678 -1 0 0
416 1 -0.05254048258694534 7.323752263116274 24.515119011272677 10.09880024524499 -2 0 0
401 1 -0.08685508873972587 3.0197655497368108 24.739036235736442 8.584913264598818 -1 0 0
425 1 0.4087343019703752 5.774717264282932 25.42956370590866 12.083436085355041 -2 0 0
403 1 0.4041010375063154 5.47206714735924 25.163023387855727 5.705894994347847 -1 0 0
404 4 -0.4324890176823278 6.155730925039661 26.17443123778135 6.619111407856722 -1 0 0
423 2 0.1790692969126978 1.4192168880211007 25.263599336308868 10.361958903960579 -1 0 0
513 1 -0.1170537344837698 1.5236615551407438 26.783629822997188 5.165673599685025 0 0 1
378 2 0.1938389817416694 6.343620151480842 22.25422732907274 4.563634646924738 -1 0 1
424 3 -0.4208937647425489 6.547336232980765 26.235768915298273 12.510717077303717 -2 0 0
410 1 0.3810927017436542 5.243187899988859 26.226726565269722 7.9220172894233105 -1 0 0
515 1 0.1748612798366599 0.6797543039533042 27.033978719571095 6.289398839261858 0 0 1
409 3 -0.4216920452065051 5.4932227656354335 26.84446297685468 8.912646498464236 -1 0 0
289 3 -0.478624024852072 4.72292822586399 20.687973223059544 6.009262771452539 -1 0 0
512 1 -0.1623357742962871 2.591457079852889 27.61317441026719 4.694999176493548 0 0 1
514 2 0.156229050717848 3.241804633025306 27.29919607036511 3.895206354723976 0 0 1
395 1 0.1569174244632975 0.950599200296413 20.53952159661759 4.59599835377772 0 0 1
442 1 0.1798551775091254 3.787218334957638 25.36157855616434 13.905202364001672 -2 0 0
440 1 -0.1038636031529658 4.278053054996838 26.488919670587503 14.626178865754108 -2 0 0
447 2 0.1510040466410486 0.9238850311775834 25.02213154292824 15.95822583988518 -2 0 0
446 1 -0.1396050641569663 1.816024768602501 25.51392647921428 15.552897008870357 -2 0 0
348 2 0.1607033595058487 1.7023249755447727 26.00963395474558 21.668045151959433 -1 0 0
352 3 -0.4903056033014757 5.9492969483760465 24.39883723058823 20.35136559542822 -2 0 0
340 1 -0.07304138846559398 1.9065513964380956 25.0965387388384 22.209342818716063 -1 0 0
448 1 0.2670973587308577 2.3234202312077343 26.73756393620373 16.200378281720518 -2 0 0
343 1 -0.0341285585564918 1.4616426231105173 22.694752345366364 22.659468829861073 -1 0 0
516 2 0.1569328967688493 5.109808576101006 25.673571640947085 22.305673433709853 -2 0 0
332 1 0.1758351633573505 5.209559019239498 21.307911361633685 20.444858630634325 -2 0 0
344 1 0.4057503488601219 6.547865107263803 23.605778188459443 20.993786434288715 -2 0 0
351 1 0.3883049826395269 0.6700512316345443 21.526004531109756 22.142914039651583 -1 0 0
450 2 0.1592513822061052 2.8461010956095993 25.45232233027357 18.949754169714033 -2 0 0
445 2 0.1675789303362948 2.055446836940366 23.98103334715608 14.204447037176474 -2 0 0
443 3 -0.4878055546873362 1.8366178980817212 27.294482375364286 17.286631271521323 -2 0 0
439 1 -0.1455113569169695 3.5659800723666746 27.20113400403834 15.632742512772083 -2 0 0
333 2 0.1573172655370198 4.352387775475336 22.729757680516954 19.069157852872152 -2 0 0
341 1 -0.06046188643275326 1.0356408639442665 23.936746205191536 21.94821680208214 -1 0 0
331 1 -0.1224373610185922 4.165208932946793 21.766244570084943 19.59644657830721 -2 0 0
345 4 -0.4255423111131112 6.4101995437156365 22.092577795969078 21.00036287650114 -2 0 0
455 2 0.1714154585813578 4.199078462290455 25.848715939762418 20.934382807775187 -2 0 0
430 1 0.236254430542918 2.754666968371674 27.514207771869618 18.327846988056567 -2 0 0
434 1 -0.1481440697719304 3.9422887099248394 26.71429315760917 20.365363934310786 -2 0 0
444 1 -0.1084023235590676 2.5899753239871957 24.904664083253213 14.552546100847444 -2 0 0
429 1 -0.1259912881094812 3.185501778683359 26.452096177386647 19.179554639084586 -2 0 0
396 2 0.1434349455668973 2.24138047852667 21.597530753929547 18.64097734046562 -2 0 0
457 2 0.1992913651862469 5.271895729611064 26.869867891870506 14.351929625860851 -2 0 0