LAMMPS data file via write_data, version 19 Nov 2024, timestep = 0, units = real

1032 atoms
4 atom types

0.7286254858002761 7.2713745141970705 xlo xhi
6.375473000751988 63.6245269992503 ylo yhi
4.188685761496046 41.80131423850474 zlo zhi
0 0 0 xy xz yz

Masses

1 12.0107
2 1.00794
3 15.999
4 14.0067

Atoms # charge

274 1 -0.1573014168745052 4.529956171269811 11.489482867512416 8.005509532483096 0 0 1
115 2 0.2193469622908404 6.158184957926927 6.653412479032796 6.50314369569879 -1 0 1
265 1 0.3921035290200698 6.085533520119718 13.147943521230356 4.810660143859966 0 0 1
139 2 0.1379085169163518 4.128585601737342 12.582337454821278 10.285494028562201 0 0 0
273 1 0.2185249589082525 3.1408779576835584 11.968271615684376 7.891109950670369 0 0 1
141 1 0.2612157982599906 2.2972543339397795 11.237392415249616 9.898636664233207 0 0 0
271 1 -0.08653947844988968 5.587997034927369 11.839493325518553 7.1414250154398635 0 0 1
116 2 0.2089927027155213 3.8386642280116128 9.844323213800067 4.76744075348778 -1 0 1
147 2 0.1451842080286216 7.172341547248633 9.723801079791123 10.095334408295091 -1 0 0
118 1 -0.1162361319823326 4.007091520311168 9.066831722973555 5.468706080788333 -1 0 1
143 2 0.1385987311490151 4.360889055834807 12.047927758701668 12.660822259645764 0 0 0
146 1 -0.1314049566980106 1.4543664470046904 10.268946054451828 10.64144634609589 0 0 0
272 2 0.1729976481981639 6.579790494863905 11.406622219616718 7.2435105552384735 0 0 1
140 1 -0.1611145006417178 3.3828957116900824 11.850567178150701 10.68027446270548 0 0 0
154 2 0.1204943007719995 1.15412654644839 9.174609831623973 12.447443391133028 0 0 0
275 3 -0.5360267025629719 2.087313164262058 11.432207377782735 8.607444752689366 0 0 1
121 2 0.165663460655185 2.1893850227432843 9.517133352150688 6.507043366412649 -1 0 1
264 3 -0.398458605461169 7.126127795319823 12.63540319817512 4.499372949873109 0 0 1
109 1 0.3869527798056661 1.1888293983519789 7.499260228419739 4.590919392962979 0 0 1
120 1 -0.0755193207654529 3.0505356019829057 8.848967164173347 6.503309429348244 -1 0 1
148 1 -0.004157927384661336 2.812707641182641 10.554873511165734 12.737378304142577 0 0 0
150 1 -0.1029953466140532 1.7310274590090375 9.960882923959398 11.979542467645416 0 0 0
267 1 -0.04477469349547444 3.87972082650964 13.244939257053396 5.8421052924967665 0 0 1
145 1 -0.09346334105455022 3.5870307574905334 11.569257878593739 12.059703909589487 0 0 0
112 4 -0.4507600213599021 6.516033875817179 8.62089712707203 4.76139279446147 -1 0 1
268 1 -0.04324688817950811 5.265776481725586 12.647104750384852 5.996864497269566 0 0 1
117 1 -0.1474205199026001 5.268150348803859 7.29174216162281 6.438874746123424 -1 0 1
276 2 0.1466815405538237 4.722649145881212 10.756438073661847 8.778531586328413 0 0 1
114 1 0.1707156737737008 5.2289401194842515 8.309163752171361 5.438015197658238 -1 0 1
123 1 -0.100100038050198 3.2051494981314983 7.865167620295246 7.525499099515087 -1 0 1
128 2 0.177819223127898 2.4071927387096754 7.787735226375166 8.306097563321636 -1 0 1
119 1 0.1863395199697668 4.32742164456298 7.005886759251335 7.521323545657383 -1 0 1
126 3 -0.4588348342322006 3.486037429675147 6.5911194233754005 10.681735396831112 -1 0 1
270 1 -0.1346233658504102 2.8692505699971163 12.886221055905384 6.830144190143125 0 0 1
269 2 0.1796934339781395 1.8708394578574588 13.24209595989121 6.781832458431998 0 0 1
157 2 0.1381067376331925 4.678053909865198 8.558270154313405 13.299902817812738 0 0 0
110 3 -0.4796801329173843 1.462710618195319 6.527082580773745 5.143607353276134 0 0 1
149 1 -0.3169249799864349 2.2869004369624797 9.114276611324115 14.796250724207221 0 0 0
172 2 0.1688630174907585 3.4033984395619177 12.403712699557442 18.832252115879065 0 0 0
35 1 -0.132211454000793 1.1279971592006217 7.587956948061139 20.164798656121725 1 0 0
40 1 0.3821676437121306 7.14521743851404 8.094930003077694 22.69028895506245 0 0 0
158 1 -0.009516565481681415 3.3187340940165244 11.41268889443985 14.96838098860231 0 0 0
163 1 -0.1375126975156134 1.6795462776708332 13.110861755064468 15.883615021517466 0 0 0
151 2 0.1170015077384676 1.3452948158824443 9.594230603518648 15.005936144361414 0 0 0
38 1 -0.0470701181600125 1.460276319985835 7.4765530543152 21.561084383090023 1 0 0
179 3 -0.4357336591617395 5.585876350255978 11.41316000814873 20.611092197957273 0 0 0
178 1 0.3835594120215783 5.668219658878137 12.571338181671798 20.91124030588372 0 0 0
162 1 -0.1183784943337612 4.3763660641745386 12.127906178707388 15.627601577608164 0 0 0
173 1 -0.1399950950235843 3.691469166749931 13.385854780783976 19.26950026513225 0 0 0
153 2 0.1267238746555826 2.1558124412987825 8.19903431644736 14.186044092537813 0 0 0
184 1 0.187499660381499 1.074581312208775 12.735244309280155 22.77102355484064 1 0 0
160 2 0.1115611277190938 5.387585960790043 11.758161236671736 15.648824388354674 0 0 0
164 1 -0.1513264666052169 4.030051847106186 13.188713084752386 16.519879957409763 0 0 0
181 4 -0.4188061140996421 6.465517328887575 13.332359777899715 22.02510487014188 0 0 0
30 3 -0.5144656920122221 1.5984610433839195 6.484374535147655 18.028579506927912 1 0 0
34 2 0.1843194335785509 6.872602039526942 8.19240330952938 19.77000398883264 0 0 0
41 3 -0.4605406031625906 6.273782338922514 8.88386456619265 22.543218624176845 0 0 0
152 1 -0.3038293943794754 4.703611889905591 9.488392754272805 13.958119779756991 0 0 0
142 2 0.1460106181412451 2.636210601443306 8.77465751649157 15.781475310943007 0 0 0
156 2 0.1149660302403427 5.090802556038199 9.112042290452253 14.948317385723495 0 0 0
183 2 0.2174125811587922 1.027775210241331 10.74712573653622 21.870352783152654 1 0 0
155 1 0.01477915790044516 3.2821725421425 10.198899900037409 14.119179083207205 0 0 0
161 1 -0.1093699954380036 2.003687104003693 11.977966205715576 15.054070445744783 0 0 0
144 2 0.1146603197156714 5.506818188366674 10.180210026043994 13.59254761469368 0 0 0
39 1 -0.05882684417143463 2.599662505161639 6.759680456966389 22.23234429139548 1 0 0
159 2 0.1186526310605814 1.1866995523856636 11.579456521377452 14.51384827065367 0 0 0
32 1 0.2477107594197624 1.92667657361497 6.745138533545082 19.339337467616083 1 0 0
185 1 -0.1036350243032418 1.5467442108573493 11.407531569826215 22.511134201885543 1 0 0
165 2 0.147222459546003 7.152307711284083 13.481309115084184 15.974050666984283 -1 0 0
196 3 -0.468598401146851 5.1002951026960375 12.233945877157407 26.698690707399095 1 0 0
188 1 -0.06771579199010065 2.6760888061812946 10.879288148084463 23.232179091697862 1 0 0
211 2 0.1116451091314384 1.1044049571039058 11.952936782302363 30.86969657930964 2 0 0
43 4 -0.4393387501836791 1.1264446611042511 7.499299274362902 24.058961768954052 1 0 0
189 2 0.1625534347373896 3.0510474828799263 9.849308021844818 23.057530850358955 1 0 0
190 1 0.1827523143735128 3.0003368336891225 12.977346954666885 24.391832112520515 1 0 0
52 1 0.1780476559927708 6.510506480737671 6.6412299322818065 27.692522640379682 0 0 0
56 2 0.1996126810787192 4.46444412812316 6.984666549880588 28.397829430225997 0 0 0
51 2 0.1516714026900716 3.566723152944179 7.897157660536475 26.30138461945519 0 0 0
46 1 0.1819768430165462 6.850006307790226 7.292292942488821 25.287395528701747 0 0 0
214 1 -0.1011108187201015 1.9094095405913443 12.593318935268659 30.40584331548358 2 0 0
218 1 -0.008440958247635268 3.2827175367395807 12.294563387498233 30.749810001362587 2 0 0
50 1 -0.07761270859536309 4.611499698401947 7.634731004345741 26.42444265894979 0 0 0
45 2 0.1903400537036776 5.0135690197336 8.008944130635454 24.345192358988054 0 0 0
223 2 0.1357948625537664 2.5406831210795406 9.533556440256898 30.667220137087536 2 0 0
42 1 0.3784488450824964 2.324488381493567 6.5582022012809595 23.736317002221018 1 0 0
53 1 -0.1104642409017772 5.162096570065064 7.137454014192817 27.62514425717531 0 0 0
220 2 0.1485772135571294 3.8790882123050765 9.002484610336523 31.816715473950143 2 0 0
191 1 -0.1120459734742978 3.4171196528326453 11.634222037448506 24.189218892709196 1 0 0
194 2 0.190962504036233 4.223970808833807 11.21349451182996 24.729220318416868 1 0 0
224 2 0.115139656814685 5.683924048029512 11.455987711323695 31.40381364851171 2 0 0
197 1 0.40200627465697 5.017717774845572 13.284854793588263 26.137972524544143 1 0 0
217 1 -0.3022134645113284 3.5270523155183726 9.742895046176475 31.066306701597515 2 0 0
49 1 -0.1567836233493133 0.8081166215057911 6.821508313336699 26.5381710113649 1 0 0
212 2 0.1482701264203859 4.234044433699845 9.708054962870342 30.2089051009556 2 0 0
225 1 0.01640728572635807 3.535952359385542 11.16050901168849 31.74678937203373 2 0 0
47 1 -0.09780528804455033 5.452541361558483 7.6388721034123765 25.265473561023093 0 0 0
54 3 -0.4833465130624568 5.115956130213393 6.489276078560131 30.587285114191953 0 0 0
203 2 0.1765446812601051 0.9870324328858322 13.35557018888062 27.5106975392724 2 0 0
221 1 -0.1076720284113599 4.303921967034526 13.257718434190888 30.263149627702422 2 0 0
226 2 0.1163932617644093 5.291301248791827 13.093091672534648 30.573565232577923 2 0 0
48 2 0.2105714000937175 1.8238672721602962 6.5448205596892155 26.589554752175655 1 0 0
187 1 -0.1265627417410263 1.8465789114110343 13.479019857067454 23.736647602336816 1 0 0
219 1 -0.3071393031662024 5.006907307707671 11.285232048384087 32.26693116595299 2 0 0
240 1 -0.1764082817119343 5.355021057807468 13.422794073941642 35.06813781267459 1 0 0
102 1 -0.1166128841801749 2.8958368245778807 9.112127059949326 38.5674441952036 0 0 0
104 1 -0.1508459839791489 3.0649212852916707 7.341512745429483 40.30105761704736 0 0 0
105 1 -0.05047986788098952 1.7444024970117729 9.69332523914286 39.09850639923406 0 0 0
108 1 -0.04360055388573091 1.1856047142052153 9.128287783044996 40.308885107905425 0 0 0
96 2 0.15778767041121 5.341454215503836 6.616495700489672 40.99508707137851 0 0 0
242 1 -0.1089448730043914 4.254586258679514 12.201347276451529 36.90317194845162 1 0 0
222 2 0.1377496369792342 5.422155138994135 10.343619495392884 32.66493370938582 2 0 0
113 3 -0.402813411441989 5.626380913429099 10.277718667400777 40.89539620846248 -1 0 0
236 1 0.2571139060315095 7.1400571596500395 11.073204980407702 34.95827908840147 1 0 0
101 1 0.2663423098228288 3.632226405983152 7.9692110346477625 39.14234008591306 0 0 0
229 2 0.1197457869898281 1.8529016886552887 9.057509551516347 32.42488973244714 2 0 0
239 1 0.2520725691122276 5.257344737047225 12.237032025916818 35.86856695426283 1 0 0
100 2 0.1628353563736559 3.3108307300210846 9.538623942583264 37.65343089300807 0 0 0
245 1 -0.04687782145484119 3.4092156198537067 13.352208567375083 37.20373127573901 1 0 0
106 2 0.2042152289965274 1.2818021707088498 10.603412792103068 38.718678813031055 0 0 0
241 2 0.1805388008291811 4.1457400122578285 11.271519795420481 37.49568652058819 1 0 0
234 2 0.1623599169743413 1.4704652603416715 12.988534558817271 35.64511640438177 2 0 0
237 3 -0.5117154053754106 6.02291331027461 11.115448300089652 35.67174040318051 1 0 0
232 1 -0.1636037647607085 1.525056590328112 12.205689102225566 34.919262674970355 2 0 0
248 3 -0.3991455471596298 2.166335289432732 12.972462352700795 39.20144684188413 1 0 0
103 2 0.1505128790394624 3.523720139899499 6.527274538288984 40.82913007005381 0 0 0
97 2 0.1497851115883217 6.834668005008838 7.171462952172181 36.986422660148975 0 0 0
111 1 0.4167690426011341 6.501123085082375 9.493569127821324 41.14684320423792 -1 0 0
99 3 -0.5104275122324081 4.829852734002248 7.741377693515892 38.53915081454819 0 0 0
230 1 -0.1074916905110622 2.459682749929568 12.218341104744237 33.889987984133825 2 0 0
107 1 -0.02630462627247034 1.9037368707158606 7.955240658107572 40.897964199921745 0 0 0
98 1 0.2737869390123389 5.833784038265627 6.976858750711455 38.94627324877074 0 0 0
95 1 -0.140441154093333 6.796716378843662 6.595494253262706 37.90467187844831 0 0 0
228 2 0.1351384362898345 3.1024247149982616 13.08940823030019 33.76562301242768 2 0 0
227 1 -0.01510488845643792 2.6103443834182483 11.093258934867158 32.94738439419211 2 0 0
235 2 0.1369549300484458 6.647889584428757 9.007000796300723 34.14632217604324 1 0 0
233 1 -0.1531338783612808 0.7667413087820092 9.886537478207494 34.097880732434064 2 0 0
213 2 0.1397924300427789 5.1622896840134604 11.982706334441623 33.09008865852165 2 0 0
231 1 -0.1203841151954382 1.7305689645061322 9.92662498334277 33.12271253814511 2 0 0
238 2 0.1277837917276669 6.131276527336263 13.448291112130423 34.287082522447434 1 0 0
337 2 0.1713230206902475 5.907808062810062 19.832556312096237 12.204749649208246 -1 0 0
328 1 0.2593946534779856 2.9156503481417744 18.587713090287934 13.217627154327573 -1 0 0
292 1 0.001749741726828374 3.5377451922797896 17.120527266832205 7.69524524625025 0 0 0
301 2 0.1308976007191926 4.244299674278014 15.056687705817488 7.809314624653501 0 0 0
278 1 -0.09597627301231661 5.799991939812831 16.783379840707013 6.5348861240082865 0 0 0
297 1 -0.04954976360787745 1.6234752011165396 17.748000362168547 9.197877985089079 0 0 0
318 2 0.1464634998744213 3.949798354312143 20.496260634494902 13.582430990841608 -1 0 0
286 2 0.1324923390420728 5.957499767628203 15.871248918784323 7.117734160660216 0 0 0
277 1 0.003306071969029507 4.560821668193441 17.542466420999396 6.61880255091845 0 0 0
296 1 -0.09113129953234037 2.611173975203865 18.094266873122745 8.1938318631599 0 0 0
293 1 -0.1034691287606133 3.4691308124374083 15.75266049926266 8.170042956656339 0 0 0
325 2 0.1827481387720283 4.319841887966538 15.849919359018404 11.5368128805625 -1 0 0
294 1 -0.09686673492977307 2.4545199744118427 15.317193867244962 9.047150027864546 0 0 0
295 1 -0.04912909754878265 1.5607879480968216 16.292875757236096 9.593049180079532 0 0 0
281 1 -0.07020095512721111 4.31089200601871 18.68629742698399 5.796756915159582 0 0 0
319 1 -0.1614857784256211 3.952902375345036 19.544329497624744 13.038885737703204 -1 0 0
324 1 -0.1012022136101276 4.199513586775099 16.868954572930896 11.945270677656424 -1 0 0
299 4 -0.4243244611417437 6.401605733162754 17.600232668075876 10.847654924572517 -1 0 0
322 1 0.1881793122809736 5.178944063952898 17.85399259889639 11.677661012726123 -1 0 0
304 3 -0.4745297958450077 6.7949721865633546 19.715011405022004 9.485047656744223 -1 0 0
305 1 0.3882571400558312 7.090816969703106 18.619399316754155 9.789605492073918 -1 0 0
298 1 0.3866476968530893 7.00529142552103 16.18971123443921 10.681750798709924 -1 0 0
300 3 -0.463098848675383 6.695022562575023 15.178230897761711 11.255720475585882 -1 0 0
326 1 -0.1081819514081926 3.065828917520357 17.22308550465364 12.754794856950205 -1 0 0
303 2 0.1533782379723405 2.5840343544582094 19.116870574588848 7.809326967452094 0 0 0
327 2 0.1952354394083442 2.384210537198526 16.4755745472579 13.085542750487518 -1 0 0
320 1 -0.09803240104467105 5.113231083410918 19.134159039552678 12.3293130356448 -1 0 0
302 2 0.1457984556190844 2.3907561307768557 14.293340123541125 9.403844735484803 0 0 0
288 2 0.1894946866184879 3.3631115606508697 19.22034538988455 5.850003917802446 0 0 0
279 1 -0.06719089495985617 6.847884303720596 17.15338086356327 5.652328856713192 0 0 0
282 1 -0.02739796729984867 5.376866079155542 19.04867538334448 4.920882537259376 0 0 0
287 2 0.1825205479240158 1.2485158251973856 16.481973279166944 5.607847911283661 1 0 0
280 1 -0.05109699969697394 6.71560343822879 18.358183099386977 4.892065927746783 0 0 0
260 3 -0.4893635272790731 2.875600496780349 15.072728991878806 4.61350248026073 0 0 1
263 1 0.4297038208347723 3.7923923471987306 14.344268996765642 4.811854270193661 0 0 1
262 4 -0.4264715816097045 5.288484331597722 14.473481007139652 4.351630500017501 0 0 1
330 2 0.1629463749118638 1.8268394406265362 20.515001394887527 12.01291425958713 -1 0 0
171 1 -0.1228824522519489 3.1084917196000217 15.846796149980973 19.532866422760346 0 0 0
180 1 0.413702535245515 6.1021990332258955 14.842177768481381 21.83565153176543 0 0 0
174 1 -0.05772588908234799 4.1475045351693485 16.06966335418226 20.48007309808219 0 0 0
175 2 0.1594023955409166 4.298239788677071 17.08621801555649 20.863663008796692 0 0 0
182 3 -0.4418274030536591 6.724893169843035 15.776054306026863 22.230109627473887 0 0 0
169 2 0.1622185220783426 2.4520555789027054 16.690823936662028 19.284445951835373 0 0 0
168 3 -0.4980520185383772 2.3808102627983 14.611676019727796 17.651915934041256 0 0 0
177 1 -0.0417046855275521 4.986246292117979 14.932172672417861 20.836139207517885 0 0 0
329 2 0.1498147996210784 7.206858551478588 19.80312140192259 16.094688598122445 -2 0 0
311 1 -0.1432869004642258 0.9579688081272074 20.510624340447997 15.302792658213885 -1 0 0
170 1 0.2695494197696766 2.9447838473338868 14.577997135941068 18.85339695244072 0 0 0
310 1 0.2403718663400937 1.3627071344756385 20.084185828949863 14.026332937242511 -1 0 0
167 1 0.2567687294670946 2.6916585801602215 13.676499782090747 16.712404649044203 0 0 0
166 2 0.1523942642550345 4.877656619551251 13.65757443184049 17.067340360472443 0 0 0
323 3 -0.4813089152166461 1.8073836436170354 18.800926306893174 13.960029159614862 -1 0 0
176 1 -0.02266910789143541 4.623784129743477 13.540537889292839 20.313692558329535 0 0 0
204 1 -0.1326107725465771 1.379861359383883 16.420808958735904 26.118241082172137 2 0 0
206 2 0.1772316536126043 2.145256181956589 17.139877298977424 25.94131226550705 2 0 0
205 1 0.2729282595505051 1.6450679432554933 15.41072828778966 27.128621827647503 2 0 0
201 1 -0.06136113330448435 6.783421565537603 16.501017700056686 25.275471269742514 1 0 0
208 3 -0.4977476091188615 2.3415925139901272 15.659323707493348 28.268157114037162 2 0 0
198 1 -0.03839879048512454 5.775214653392776 15.45468098451945 25.34403629357553 1 0 0
209 1 -0.1642421499339413 1.5597702971418506 13.726931284118205 29.655184089537087 2 0 0
210 1 0.2654305768126136 2.5818599628754475 14.64865088310914 29.112708645400044 2 0 0
207 2 0.134505330909118 7.030983563043151 13.940118921172076 29.492495732064544 1 0 0
192 3 -0.4407397954603912 3.8224560418419613 16.0000797905589 24.102776991770096 1 0 0
199 1 -0.04159418273110115 6.185151446620489 14.2671231994191 26.18712049165396 1 0 0
195 1 0.3955879601519466 4.341458216382296 15.25050236549446 24.853892139554148 1 0 0
200 2 0.1732073106062528 6.612739085616342 17.34300415660858 24.593794298487456 1 0 0
202 1 -0.1326672178754625 0.8766510499821754 14.24049320581565 26.94919234655153 2 0 0
216 2 0.1617391468521141 4.714981984086238 15.121355714763075 29.12321554423508 2 0 0
215 1 -0.126728990996646 3.986792201213217 14.385553953144235 29.44119253682684 2 0 0
193 4 -0.4185624616879796 3.836966441280308 13.832374965201659 25.339186597486297 1 0 0
186 2 0.2309141068860247 1.6232586511705194 14.539011906320587 23.87595030886388 1 0 0
251 3 -0.4656150082004965 2.617003038131365 16.824139964303903 36.43766342780782 1 0 0
250 4 -0.4164724755445985 2.212263537133795 15.277989491155303 38.33340094177442 1 0 0
256 1 -0.1161024659377694 6.846189690443897 17.009907581008527 38.67723151269375 0 0 0
377 2 0.1643949823615725 1.88825488439435 19.815960225435333 38.52278487606778 1 0 0
255 1 -0.1175483906125412 7.1004027731389865 15.240117005157268 40.298011457500195 0 0 0
259 2 0.1537943651859918 4.9426809357185615 18.182197480168675 39.14793188225587 0 0 0
247 1 0.3796823233474536 2.583521300824051 13.763102299199556 38.375686379933725 1 0 0
291 3 -0.4309137378404345 2.219937729787053 19.013098775820644 41.39584355419923 1 0 -1
253 2 0.2747250493337334 1.2514102832710927 14.452420725317868 40.68006449227843 1 0 0
261 1 -0.1037173234248815 5.0354932197892115 16.4062858825077 40.33661957178885 0 0 0
284 4 -0.4116585937526295 6.7140320207657975 20.184009052473023 40.77534435106337 0 0 -1
258 1 -0.07004076450551933 5.647327551640842 17.30760840953097 39.38481020775741 0 0 0
290 1 0.3772896754867346 5.368290263488154 20.228363203736258 41.574652073432375 0 0 -1
243 1 -0.08122861817627164 4.55337797086768 14.599522140974798 35.3295599434162 1 0 0
244 2 0.14501268272386 4.639504280505801 15.475961669451664 34.685905856284826 1 0 0
252 1 0.1771474137343169 1.0247050151527093 15.867205193533017 39.105409505293785 1 0 0
249 1 0.3801249756276156 2.7351304188189944 15.737170054303785 36.96393979594936 1 0 0
257 1 0.1953170729400143 5.794992499642632 15.34779700999935 40.88092473780821 0 0 0
246 1 -0.06455978812228115 3.5425180953307316 14.613487608609299 36.335461698168295 1 0 0
254 2 0.1735713850648903 0.7430239230277629 17.639359963391264 37.914507584462235 1 0 0
283 1 0.4006513412896793 1.033775238713582 19.162032221641837 41.530793276727486 1 0 -1
266 2 0.2069261971126403 4.042024148665419 16.67939744301691 40.73892401351504 0 0 0
406 2 0.1339426038117926 4.589983168873216 23.173632540551075 8.387842432565943 0 0 0
400 1 -0.04154362789556046 6.255739469501622 24.739899480663876 5.805220675727938 0 0 0
398 1 -0.09753376319472806 4.695260231807843 23.851886511302784 7.551794018354013 0 0 0
335 2 0.1439373661096931 1.9575017530441152 23.10705428676511 12.38468351813473 -1 0 0
417 1 -0.02863787125202193 6.805217817198859 26.07494884852477 8.626862813954087 -1 0 0
402 1 -0.03350208222992684 5.116209992263711 25.637568353835928 5.437846933540091 0 0 0
419 4 -0.4266443253873263 4.702691725805471 26.692142605155635 9.802402960356137 -1 0 0
420 3 -0.4758144957176207 4.8343114023134905 24.845761283425958 11.426968447390715 -1 0 0
418 1 0.3899210189088793 5.273575418039091 25.40445945842155 10.46255066819597 -1 0 0
411 3 -0.4357075419314323 1.8259760108586793 24.186859199774386 4.676276278907533 1 0 0
412 1 0.00816625568066166 2.362084392658465 24.909903159577116 8.062333312270455 0 0 0
422 2 0.1380894187492956 0.8860162720182716 23.402461360271474 10.89390792733528 0 0 0
399 1 -0.05894240971303826 5.968883176205196 23.859069671909854 6.897299894508103 0 0 0
414 1 -0.08989183281691224 1.0298387715486712 24.078945364185692 10.029185279381153 0 0 0
397 1 0.02118871038525443 3.624309668483187 24.755086829874863 7.2244545242960285 0 0 0
444 1 -0.105157075835379 2.607626577878838 26.849568476517067 11.240804994755237 -1 0 0
415 1 -0.05672287352687749 6.568336934009203 25.132085605874607 9.763254522552192 -1 0 0
421 2 0.131051333992244 2.8882272725505866 23.214446673580415 9.403310970208338 0 0 0
408 2 0.1637978684501306 3.0175784414461613 26.332206342185344 5.721148053573449 0 0 0
314 1 -0.1455209679210539 1.6819923731906887 22.390869346370227 13.21905150413115 -1 0 0
413 1 -0.1088446219079077 2.1343636461491196 23.960097616950094 9.147497179993724 0 0 0
416 1 -0.0909900296114635 1.411543875959615 25.983374803629097 7.797820802809925 0 0 0
401 1 -0.05914185222503906 3.841299157190008 25.655839966408987 6.097616267095184 0 0 0
445 2 0.186954469217768 2.90321827154118 25.98448550185104 11.843225819961894 -1 0 0
407 2 0.1594823730605129 6.720197364590698 23.140507463353398 7.278814070064476 0 0 0
403 1 0.381040546147203 0.858160991901012 24.87351674560338 4.764362394130631 1 0 0
423 2 0.1499419847949006 1.6459080774743002 26.819352077282705 7.125269526930342 0 0 0
309 1 -0.1724057784389014 1.6429945779889668 20.975694180961767 12.959268907120752 -1 0 0
425 1 0.4006676103512973 5.659925608778547 27.158325600732702 8.659590714939224 -1 0 0
447 2 0.1621364563444965 0.8947873891387255 27.243771053749384 12.615857581925578 -1 0 0
442 1 0.1797137189813157 3.299451431187228 27.205346966628262 10.04344970523707 -1 0 0
446 1 -0.1392006108682151 1.4145289852033724 27.536020613925484 11.660322300697262 -1 0 0
308 2 0.1781838251975218 0.8288038333637008 22.32215768251362 16.59040696896262 -1 0 0
331 1 -0.1193801050373997 4.2895414418616085 26.554499478273648 15.28220130259318 -1 0 0
472 3 -0.4279294079840296 3.9563618299887353 26.09083607955154 19.208763240569 -1 0 0
460 1 -0.08856035528844711 4.849533645411828 25.4838946168643 22.03896828700087 -1 0 0
316 2 0.1464606508133094 3.513867871350561 22.77694446768028 15.680285590347168 -1 0 0
468 2 0.1588767545086144 4.542783738406261 24.620354379916428 21.494194221361848 -1 0 0
345 4 -0.4067168925584174 6.450936197978248 26.342069065778407 16.772924843724688 -1 0 0
350 3 -0.4521397166385105 0.7385380860500964 24.380226720192713 18.053291842672017 0 0 0
312 1 -0.1599480469224639 1.0495015465485713 21.902054070299975 15.592861025742105 -1 0 0
334 1 -0.07421371644436456 4.930444843745679 24.450360020077387 15.994627853959937 -1 0 0
336 1 -0.1410413797489884 3.70888490164457 23.861347674429993 15.621183649997619 -1 0 0
464 1 0.3762297078638566 4.381523571136313 26.984061615256728 19.862416399584184 -1 0 0
351 1 0.4265631457046872 7.0004350437455845 25.52748534418177 18.004768808934458 -1 0 0
342 1 -0.06467287843579805 1.181530817603853 26.34707032865972 20.476137693439224 0 0 0
321 2 0.1917354643985062 5.671356156324588 23.742574786733858 16.348087673250244 -1 0 0
349 2 0.1473253756342829 1.1138662620814515 25.3853641298029 21.012208368436344 0 0 0
332 1 0.1967133238351552 5.332747340222744 25.83250513124753 15.983856352436948 -1 0 0
343 1 -0.01600325613816485 0.8091568991478684 26.544804340619663 19.105478201015746 0 0 0
461 1 -0.04432394663014659 4.8590294204230045 26.7350465346766 21.284461065710946 -1 0 0
338 1 0.005896273789413125 1.6658646241482216 27.51063255916584 21.201942838226774 0 0 0
285 1 0.289663612529203 2.6187661128028363 24.67949835983634 15.130048984979666 -1 0 0
333 2 0.1671549697706829 4.492308631552662 27.630123079878537 15.212815075641881 -1 0 0
306 1 -0.1252451500317096 3.024277182247834 26.072322238541435 14.872032904935287 -1 0 0
313 1 0.2328055265337298 1.3759179828366683 22.830491120735932 14.537458226044004 -1 0 0
396 2 0.1477029252364425 2.3385508138790674 26.73717338696228 14.283850671170315 -1 0 0
317 3 -0.4811163443699717 1.4388924262998337 24.181224353985012 14.813436918676837 -1 0 0
354 1 0.008539852032404229 2.142413352160924 27.356383069584762 22.644561073711916 0 0 0
365 2 0.1367026140214218 1.835242228013119 25.09841594746297 22.660422088553183 0 0 0
389 1 0.2584815226214465 4.885544700722038 22.76792259107407 30.37997649144931 0 0 0
473 2 0.1725070249248647 2.689717995336766 26.68069824831545 32.157271179117714 0 0 0
385 1 -0.1262662557269839 3.694954444949379 22.922145956242158 28.15616824473709 0 0 0
475 1 -0.07871711868082337 6.0889425082853545 25.1247680247659 26.21469725938738 -1 0 0
477 1 -0.0271888829218945 7.234201512087175 26.089544166587118 28.212985816103057 -1 0 0
482 3 -0.4969438643415242 1.2883433872532297 25.358877874925376 30.44769872801009 0 0 0
358 1 -0.09099748238993345 2.079248174299525 26.03104295196221 23.233590666640335 0 0 0
366 3 -0.4858136600346378 2.7221299820339295 23.54774461391866 25.14370782180295 0 0 0
367 1 0.3816591668228109 2.756301782467169 24.683986574153845 25.526700793871075 0 0 0
459 1 -0.1075538962851097 5.1711784669251095 25.472268940320934 23.386146646942915 -1 0 0
383 1 0.1702195035512347 3.7265409704732226 24.355877005570047 28.075655898642825 0 0 0
484 2 0.1529245021132443 6.741253869680174 23.92336262361436 27.950745561891857 -1 0 0
388 2 0.1626979083773856 4.0632658020867725 21.11522089722915 29.20402644956496 0 0 0
381 1 -0.1532900473724433 5.05736720575505 24.20664300496641 30.24191587029709 0 0 0
386 2 0.1710115598793491 3.1483877423252062 22.446000342654393 27.285921098656463 0 0 0
380 2 0.1741190295394162 5.558764090566388 24.79309514903573 30.992967906948035 0 0 0
361 4 -0.4339732246133374 3.1770193970381992 25.203745375672366 26.937104976493266 0 0 0
384 3 -0.4906434359579154 5.089204647800383 22.00970746285519 31.447196947877963 0 0 0
357 1 -0.03244647458478411 2.904339327963883 27.153568431116174 25.347672027356932 0 0 0
467 2 0.1444339692500503 5.058158278894963 24.52277785841741 23.856794992431848 -1 0 0
483 2 0.1423524145826299 5.751455387165576 24.229024429629696 25.703567779354692 -1 0 0
382 1 -0.09929333662442343 4.415864441317748 24.90974289508716 29.174422197981446 0 0 0
476 1 -0.05579316716484546 6.703663473305928 24.932932344268277 27.49582220904385 -1 0 0
387 1 -0.1356763273049124 4.2209864435761375 22.160779543967177 29.222287729918914 0 0 0
353 2 0.202857361909095 4.465712472462079 26.002995362679286 29.173021408754664 0 0 0
359 1 -0.05353972746023133 2.4762699833552277 25.895617606195213 24.647536778652828 0 0 0
480 1 0.3966031846217305 1.3443022777508746 26.19555943991492 29.578219246276117 0 0 0
390 2 0.1899441264257359 0.8128423662313282 23.293591656210893 31.60042148605073 1 0 0
458 1 0.00692733639045861 5.651085889045721 26.691921626368003 24.058373498915905 -1 0 0
360 1 0.3969004766943793 3.382804093070914 26.71201619866671 26.75024971531791 0 0 0
474 1 0.0126087348369851 6.022791366352605 26.413265461275163 25.504616616580694 -1 0 0
479 1 -0.02505397156160565 7.194351602882424 27.432216820649437 27.5342229410329 -1 0 0
362 3 -0.4322089252153256 3.966390085142786 27.51658247576286 27.40449161768204 0 0 0
478 1 -0.05803276502316318 6.572343329042734 27.555687255017318 26.23274990212616 -1 0 0
502 1 -0.1165784109911429 3.2876585074580706 27.474182481676493 31.764970267562674 0 0 0
481 4 -0.4010557788233261 1.8093535162416348 27.694192107105557 29.675663357891075 0 0 0
404 4 -0.4287714466034633 6.957467730068574 25.964331679240587 41.40553101643385 0 0 -1
500 2 0.1397230898776646 4.679897299817235 27.366295343871975 33.3737147816768 0 0 0
513 1 -0.09816462049568277 2.3276421317296294 25.66344790446828 39.62033826669798 1 0 0
488 1 0.252273460820026 2.569487760009266 27.162140240711732 37.64325543837891 1 0 0
514 2 0.1617692535592044 3.9711436842028407 25.52176961864224 38.19491226168912 1 0 0
515 1 0.1730362460044731 1.1577810943502742 26.312633818926603 40.12399006958753 1 0 0
427 2 0.1714516711198181 0.936342830425778 26.285210934405384 35.70740299197912 1 0 0
375 1 0.2454835894151638 7.236251138802968 23.121809136114102 35.09922312036109 0 0 0
491 1 -0.159415774655895 7.00134385313091 27.538894367137836 34.06515859822065 0 0 0
368 1 0.2399114064423864 1.1789005119694136 22.92230812172824 37.30106837337564 1 0 0
391 2 0.1571984872871449 4.3964756476075735 21.41143795060491 34.065024039268735 0 0 0
374 1 -0.1264430226956265 1.0990688891148621 23.542272596046637 33.78375475298293 1 0 0