LAMMPS data file via write_data, version 19 Nov 2024, timestep = 48, units = real

1032 atoms
4 atom types

0.7286254858002761 7.2713745141970705 xlo xhi
6.375473000751988 63.6245269992503 ylo yhi
4.188685761496046 41.80131423850474 zlo zhi
0 0 0 xy xz yz

Masses

1 12.0107
2 1.00794
3 15.999
4 14.0067

Atoms # charge

274 1 -0.1619756307024927 4.51022662285364 11.43001022881219 8.022362815549188 0 0 1
115 2 0.227344525632064 6.162398833383211 6.594569728723526 6.511499896491898 -1 0 1
265 1 0.3932216868513312 6.099527029124721 13.185287995048283 4.878812559464115 0 0 1
139 2 0.139306199406115 4.042990634636323 12.612839261982728 10.221326978956458 0 0 0
273 1 0.2320064258170698 3.155039624244337 11.930815485136694 7.893227020891402 0 0 1
141 1 0.259715492078581 2.3550559967060103 11.207100655811955 9.940080704892026 0 0 0
271 1 -0.08382698789950005 5.534494116885702 11.772024032700287 7.114639650222294 0 0 1
116 2 0.2070052749463105 3.8867733601848373 9.839494432227749 4.761824657597697 -1 0 1
147 2 0.1476836070575879 7.2165462330105274 9.781226777838322 10.09624853056948 -1 0 0
118 1 -0.1121487220790065 4.046226325590167 9.067143987672768 5.5242521888916105 -1 0 1
143 2 0.1372619066234277 4.4106562633576765 12.070008897310426 12.60187941220815 0 0 0
146 1 -0.1340625642278459 1.4969711064283515 10.261622786124995 10.634709023231729 0 0 0
272 2 0.1674980543155726 6.5442806333996515 11.372761079176726 7.235641784961597 0 0 1
140 1 -0.1632380143371755 3.4045438843498093 11.865613531054024 10.698489169172195 0 0 0
154 2 0.1185720857828041 1.1067871244312844 9.158353309478212 12.44493098619731 0 0 0
275 3 -0.5374340936249632 2.125415051793368 11.469138057044125 8.648739266702815 0 0 1
121 2 0.1635909125316997 2.158515771130858 9.508256886270617 6.5109740252127155 -1 0 1
264 3 -0.4019698166521129 7.122340082227458 12.703733315507556 4.5153742070484215 0 0 1
109 1 0.3820202826475205 1.1394544489009482 7.531701123534783 4.557983582502103 0 0 1
120 1 -0.07418892867264087 3.05294832091653 8.876726174931077 6.523153644398029 -1 0 1
148 1 -0.004026758248632637 2.8283408009473243 10.523776240909214 12.720923364068454 0 0 0
150 1 -0.103216876383795 1.7426987129763076 9.912082496865036 11.975733140526351 0 0 0
267 1 -0.04784155979476587 3.8472593786446776 13.261128496023172 5.928459449002109 0 0 1
145 1 -0.09344191020537899 3.619116269548468 11.553230680940302 12.053330549540785 0 0 0
112 4 -0.4519020567442699 6.477751837852123 8.562713041664898 4.73892101803854 -1 0 1
268 1 -0.0548893812328569 5.232779562085815 12.651324963974588 6.014954178311019 0 0 1
117 1 -0.1492322122268926 5.278574820924 7.236026286807285 6.520397861791935 -1 0 1
276 2 0.1456734328167112 4.754406428423122 10.744660767209066 8.835384611466827 0 0 1
114 1 0.1688942122875882 5.248514508216511 8.286488503263142 5.538336369438186 -1 0 1
123 1 -0.1011310671485717 3.2010862080471334 7.882099919335704 7.5383153061634385 -1 0 1
128 2 0.1811842990915604 2.4168413301314406 7.7734535203074655 8.293379610107749 -1 0 1
119 1 0.1837631193698854 4.317744493636665 6.997277670188471 7.553997149620677 -1 0 1
126 3 -0.4589254497986839 3.510359307727411 6.615888939041529 10.655616721966357 -1 0 1
270 1 -0.1300532802646818 2.8305941752596486 12.853493306807934 6.8437619540636305 0 0 1
269 2 0.1770112434755471 1.8291688910513073 13.284373722506622 6.773384172011215 0 0 1
157 2 0.1397659045670837 4.670204471969587 8.610472858130194 13.31094363831431 0 0 0
110 3 -0.4664502946027611 1.42290263753152 6.57660959364439 5.2012146168269995 0 0 1
144 2 0.1154946142490094 5.480249395133127 10.176689201021206 13.579183631223437 0 0 0
149 1 -0.3104878078685034 2.3002317935944654 9.120240730955185 14.79709598214225 0 0 0
172 2 0.1704034587913462 3.45055898480688 12.42836189040888 18.865671305996642 0 0 0
35 1 -0.1252988571753846 1.1745133199755642 7.551459964968872 20.1735842125706 1 0 0
40 1 0.3819555591723583 7.123352213491145 8.091574587298629 22.745297199798326 0 0 0
158 1 -0.01004033868287714 3.2751810299806583 11.420489222835766 14.971265991710382 0 0 0
163 1 -0.1333426606832044 1.6638581961152314 13.103952800946608 15.899205602699086 0 0 0
151 2 0.1143773510559687 1.2911839037944413 9.54313694233179 14.989760917883288 0 0 0
38 1 -0.04982754198328596 1.4001532654127828 7.502373617014576 21.599724152874185 1 0 0
179 3 -0.4430651286697947 5.644683289262073 11.398274588011908 20.63545485862513 0 0 0
178 1 0.3944561962545798 5.606168278994582 12.544259743464941 20.945444415594874 0 0 0
162 1 -0.1134955362639815 4.340235186450686 12.083047785130464 15.701426219248177 0 0 0
173 1 -0.1408921505728823 3.661305860529479 13.415283831182503 19.28934086381988 0 0 0
153 2 0.1266469395474212 2.173543782129525 8.210921472084088 14.171013499928485 0 0 0
184 1 0.1873097140896721 1.1079032811891694 12.747482921707315 22.73497979535144 1 0 0
160 2 0.1119404512972212 5.369437343510118 11.726515225516218 15.618928125087548 0 0 0
164 1 -0.15673926774473 4.063217261612396 13.184188383602159 16.53811891249591 0 0 0
181 4 -0.419887223204083 6.480427190715261 13.310072321116923 21.998818793037902 0 0 0
30 3 -0.5104104349232784 1.573238690768111 6.485658338039268 18.010532048069756 1 0 0
34 2 0.1828764390864744 6.8669018746487005 8.11628564892734 19.77524502635325 0 0 0
41 3 -0.4609652450963547 6.2206120570704115 8.851977991434284 22.589596505027085 0 0 0
152 1 -0.3117540478912481 4.712733479552572 9.489735626290251 13.99563494644587 0 0 0
142 2 0.1464813067279639 2.6912360901582097 8.791779379464113 15.786234678780202 0 0 0
156 2 0.1181116416815842 5.076340119038578 9.12384328333321 14.980529334110281 0 0 0
183 2 0.2163480017614141 1.0297883603905869 10.76293549982181 21.8233031388926 1 0 0
155 1 0.01487758482531528 3.2753351228981624 10.196031073581489 14.107679706087419 0 0 0
161 1 -0.1082854717548445 1.9397392663384057 12.003475837660753 15.056774113913784 0 0 0
165 2 0.1525295668410212 7.190463797871187 13.5000556419009 15.96159256117525 -1 0 0
39 1 -0.05930818329252487 2.5427144060483258 6.71127124675554 22.19297089023515 1 0 0
159 2 0.1164621492827279 1.12843107292557 11.57259468885765 14.46968396905896 0 0 0
32 1 0.2386274818957849 2.008075008382495 6.789142296613317 19.32082365457791 1 0 0
185 1 -0.09975130860687251 1.5515407815625921 11.40030151616165 22.53692967136881 1 0 0
196 3 -0.4716472141391743 5.039162063780308 12.178968415177359 26.68985939275693 1 0 0
188 1 -0.07125329036496322 2.6706701927803196 10.851723458672858 23.2263256255513 1 0 0
211 2 0.113866087437813 1.1142883838811173 11.99037131587884 30.816968604694907 2 0 0
43 4 -0.4391766645829505 1.1608596707757275 7.537055368919069 24.091050620731142 1 0 0
189 2 0.1623326364968111 2.9927783300948914 9.824811917811665 23.02843564013846 1 0 0
190 1 0.1812704030868926 3.0085107436326406 12.99909674278666 24.41688102144032 1 0 0
52 1 0.179162489282548 6.495332109554463 6.638609699567591 27.721930109879494 0 0 0
56 2 0.2015393266598033 4.465332757304767 7.005657694544895 28.464224771901904 0 0 0
51 2 0.1504525881001804 3.5633413728720176 7.917314991946318 26.33413202185735 0 0 0
46 1 0.1823980384010042 6.828923222657931 7.320923475682019 25.291957996288573 0 0 0
214 1 -0.1042962064910736 1.9057826781503344 12.640857799209307 30.439670443409458 2 0 0
218 1 -0.007238713139065944 3.2817589112843524 12.331769439797798 30.803312680119944 2 0 0
50 1 -0.07200034075550654 4.6091697464026264 7.6039940086206705 26.393505666207997 0 0 0
45 2 0.1935206267145338 5.004699066534917 8.048075786573833 24.312284000785755 0 0 0
223 2 0.1339661123900658 2.538667949058736 9.521246021965148 30.621865258985192 2 0 0
42 1 0.3794254293472206 2.369336473693032 6.619205443005247 23.705428609929328 1 0 0
53 1 -0.1080655922811919 5.138401979839552 7.086570400593863 27.609248747747415 0 0 0
220 2 0.1493886080140352 3.8438807677185687 8.944904035864006 31.720665293173166 2 0 0
191 1 -0.1078179112799276 3.378085697649915 11.640867809511494 24.178802165569742 1 0 0
194 2 0.1894229429843902 4.235051008469833 11.201351464494408 24.69806561763115 1 0 0
224 2 0.1160232030228868 5.7575413795909185 11.468613935131984 31.438041961602515 2 0 0
197 1 0.3993627220375304 5.0039355720191185 13.241858729610346 26.15374575035178 1 0 0
217 1 -0.2976105561927013 3.549489145521588 9.759198659890641 31.01628685054552 2 0 0
49 1 -0.1527396348572188 0.7507230800313117 6.797094339153336 26.540329945332786 1 0 0
212 2 0.1493367536540531 4.261055484946699 9.720095670678845 30.165879012472647 2 0 0
225 1 0.01650265882111202 3.5852682745457534 11.149900559440491 31.745886309791544 2 0 0
47 1 -0.09952950758405485 5.446702208264663 7.689640710855222 25.244528161252536 0 0 0
54 3 -0.4921692933035537 5.133263196184174 6.525104406817039 30.583890271170947 0 0 0
203 2 0.1723360166566446 1.0586682326915222 13.298069611386268 27.552947464383827 2 0 0
221 1 -0.1052448309394243 4.277877621461082 13.269212382057788 30.288503540586998 2 0 0
226 2 0.1127202116305454 5.328139283158674 13.130117964743388 30.540546613674017 2 0 0
48 2 0.2071879913146892 1.8037930708398628 6.50398246274123 26.603333050792116 1 0 0
187 1 -0.1257734723296942 1.8844042026741303 13.494279677566816 23.685893552841627 1 0 0
219 1 -0.3045321423182684 5.0542385957692435 11.255825925924661 32.26611420871948 2 0 0
240 1 -0.176478189665233 5.370215810058411 13.449355058219219 35.0792986160878 1 0 0
102 1 -0.1225573995739205 2.919151271920675 9.122818333413804 38.54976638114922 0 0 0
104 1 -0.1458132391749131 3.0877356700074063 7.40158293870737 40.326428857004565 0 0 0
105 1 -0.04505219163114689 1.7600895672366992 9.708580687373141 39.10438556813277 0 0 0
108 1 -0.03789516452437558 1.204642632790132 9.152565988969958 40.304941620549016 0 0 0
96 2 0.1560754465052628 5.327471069687141 6.542427577805247 41.05031660441928 0 0 0
242 1 -0.1123090786334691 4.27230803109704 12.222967700860709 36.9316796914979 1 0 0
222 2 0.1432971512907643 5.388755755696602 10.298053864257103 32.71286517479098 2 0 0
113 3 -0.401026805687276 5.668784384463395 10.29769298619872 40.81073118641905 -1 0 0
236 1 0.2532243106914968 7.08582864069683 11.079977370265983 34.97970824327511 1 0 0
101 1 0.2746327936575761 3.643030980524378 8.011349514097898 39.14989157008935 0 0 0
229 2 0.1214430550328934 1.817700544136876 9.074715926901016 32.477695371746066 2 0 0
239 1 0.2576570817929154 5.250615773718701 12.247934497785232 35.88515944048599 1 0 0
100 2 0.1639301697794789 3.3083833186648195 9.543890502368576 37.624941281130795 0 0 0
245 1 -0.04052643758936798 3.501845156342486 13.392231460591013 37.232549402083066 1 0 0
106 2 0.2018883712509084 1.2821290723150152 10.571777574603331 38.629851013100556 0 0 0
241 2 0.1863989605686784 4.173559868873593 11.333156136887817 37.55357452690347 1 0 0
234 2 0.1583878931860379 1.4330561581582872 13.00854052996366 35.60961619489487 2 0 0
237 3 -0.513425083536018 5.9536842173204825 11.107134294948104 35.69265222402853 1 0 0
232 1 -0.1635725560448411 1.487033917914291 12.183945505361855 34.8945467175125 2 0 0
248 3 -0.4075648325148306 2.179579696597957 12.93118641467819 39.18719151730999 1 0 0
103 2 0.1470771198102375 3.542690220151762 6.53348837375502 40.794228244565545 0 0 0
97 2 0.1488514315226098 6.847998364522686 7.181517148784067 36.98162893363346 0 0 0
111 1 0.4113029430251805 6.507409007387293 9.512547020618038 41.12998903449391 -1 0 0
99 3 -0.5107593998907815 4.804436712583636 7.710409708468962 38.52604332311038 0 0 0
230 1 -0.1055738973160409 2.443300884083377 12.20894117551865 33.872267594760366 2 0 0
107 1 -0.03151329160731809 1.9036832437401259 7.954976697196629 40.914296659792385 0 0 0
98 1 0.2712764025623493 5.806639654344568 6.9278871063276 38.925595979712796 0 0 0
95 1 -0.1388354544058219 6.81440024173741 6.616167851417969 37.91601220350734 0 0 0
228 2 0.1341977826369045 3.1026394936112327 13.077135409014787 33.78764694316351 2 0 0
227 1 -0.01479453075126536 2.5875293934063386 11.111031385220816 32.91858477672693 2 0 0
235 2 0.1392134946010736 6.652920783133036 9.03154310961087 34.22280659640777 1 0 0
233 1 -0.1550833679258646 0.7480011159606021 9.914120456986442 34.125235814199925 2 0 0
213 2 0.1372538448094362 5.157948046557026 12.040774141160071 33.03801264184891 2 0 0
231 1 -0.1198868279854998 1.7237314955911383 9.949117649507409 33.12545490895075 2 0 0
238 2 0.1267544338635521 6.10642831587802 13.488921542688075 34.27612564200601 1 0 0
337 2 0.1711415756019407 5.872570567266536 19.893954366436894 12.169523531801199 -1 0 0
328 1 0.2640773062191858 2.8976801540969053 18.532430288580844 13.308105906406473 -1 0 0
292 1 0.004451267838234851 3.5468846321066314 17.11843615135424 7.659867726256809 0 0 0
301 2 0.1304796781152582 4.203438196630647 15.016471303342822 7.78976106953623 0 0 0
278 1 -0.09791355163778254 5.8093182404279915 16.775819204355102 6.533354130774287 0 0 0
297 1 -0.04514605227700892 1.6399667483595168 17.732895091101028 9.105695520742547 0 0 0
318 2 0.1452410469374077 3.8973073763129356 20.50165624843622 13.544483689683341 -1 0 0
286 2 0.131108658409212 5.971480256680879 15.879668766873737 7.138680402667703 0 0 0
277 1 0.00309981848825111 4.574185215831795 17.51785408493474 6.674260250759404 0 0 0
296 1 -0.09381243247266993 2.61520351024655 18.108107722829494 8.135480950039485 0 0 0
293 1 -0.1061596266605865 3.489311167431237 15.752631015750836 8.14981183257794 0 0 0
325 2 0.1816627922938967 4.29668814055754 15.88873374853507 11.560311088580296 -1 0 0
294 1 -0.0942853191893971 2.506604316357258 15.329303177388583 9.07155661269146 0 0 0
295 1 -0.0551308251484519 1.5759944606622234 16.29617245091709 9.589357049866335 0 0 0
281 1 -0.07309469068572899 4.346497393549734 18.665578881736757 5.84646963979546 0 0 0
319 1 -0.1595238121832542 3.946617977165328 19.505153097473986 13.09477610367395 -1 0 0
324 1 -0.09840206607886906 4.20630252184357 16.897691615402536 11.980034278599371 -1 0 0
299 4 -0.4257772839086555 6.399450453821149 17.567589266423056 10.814884600050036 -1 0 0
322 1 0.188655024299293 5.214483829799875 17.8717066200567 11.705011126840017 -1 0 0
304 3 -0.471711070072396 6.805860102410097 19.68522708848603 9.553881382927578 -1 0 0
305 1 0.3895717248169477 7.09629652967071 18.561553107917838 9.807002331209173 -1 0 0
298 1 0.3893871208170068 7.010721239268905 16.157467619785617 10.630886882049625 -1 0 0
300 3 -0.4646117728416767 6.716270405731436 15.15499128794002 11.211384769365845 -1 0 0
326 1 -0.1090957799057619 3.0751601884777604 17.199070209610632 12.784090266721789 -1 0 0
303 2 0.151357528325781 2.654450369023733 19.141336649470787 7.788905383273249 0 0 0
327 2 0.1935855599244724 2.3241973525373543 16.433063580856782 12.99395184283272 -1 0 0
320 1 -0.09777691007070638 5.070337285880234 19.159739145763048 12.30685506544106 -1 0 0
302 2 0.145294598611596 2.45386298278343 14.289338224724212 9.405249421945854 0 0 0
288 2 0.1824651860620178 3.3982337227077952 19.214419954809586 5.887427315371377 0 0 0
279 1 -0.0737107612511851 6.838751568001896 17.176437767355434 5.662287826226647 0 0 0
282 1 -0.02931366917675696 5.361377631853996 19.09909626034577 4.94609863110496 0 0 0
287 2 0.1813268159583267 1.2190451428255522 16.590159081005098 5.598728897767931 1 0 0
280 1 -0.05013801290131545 6.678474164212858 18.36540148255396 4.862200733886576 0 0 0
260 3 -0.4798411414947837 2.934517294412716 15.080419605041174 4.619218263062621 0 0 1
263 1 0.4195266614061222 3.8467597837751164 14.356810826071928 4.85292251486532 0 0 1
262 4 -0.4118612800028817 5.29501276213025 14.402981828078007 4.253877518442602 0 0 1
330 2 0.159768837530062 1.8620797372679343 20.60514122253163 11.960719300711364 -1 0 0
171 1 -0.1225246073402925 3.122852837322021 15.854995481573367 19.51354383133609 0 0 0
180 1 0.4088286745563819 6.135624494132653 14.833643764729956 21.834055997113122 0 0 0
174 1 -0.05966374678434504 4.134441746497504 16.05173772050923 20.470621205596174 0 0 0
175 2 0.1623444489001138 4.290158924698186 17.03771283410324 20.919489300084233 0 0 0
182 3 -0.4425212418382777 6.73482234909434 15.770460196994629 22.257003105337915 0 0 0
169 2 0.1622953576753468 2.47938887534084 16.694094726961794 19.238463780046146 0 0 0
168 3 -0.495185551715793 2.338170144050039 14.596846244861515 17.63611550768938 0 0 0
177 1 -0.03418833702502465 4.966108914239037 14.939895226800536 20.861236406575184 0 0 0
329 2 0.1489064562572786 7.22717836215247 19.849665683641287 16.11753961512497 -2 0 0
311 1 -0.145674948762814 0.9642480415283664 20.55398391597332 15.327405921867276 -1 0 0
170 1 0.2656737555456032 2.964112263056679 14.581836903670004 18.822462341950168 0 0 0
310 1 0.2414347556180028 1.3747817464504195 20.054665146043533 14.039592098909372 -1 0 0
167 1 0.2556657251770791 2.7119612088164864 13.676925355397065 16.717263551529037 0 0 0
166 2 0.1537384173717544 4.8836629386186114 13.665726219029246 17.078727717020932 0 0 0
323 3 -0.4825585179481616 1.7568319310275944 18.75629429830837 13.9779838720239 -1 0 0
176 1 -0.03529817099612113 4.669431211847598 13.569761737859292 20.28632654647923 0 0 0
204 1 -0.1285675601186155 1.3902673273154682 16.438894473914104 26.112438858182717 2 0 0
206 2 0.175012414448227 2.13296832983991 17.232533204827046 26.012223355177063 2 0 0
205 1 0.2891798097937783 1.6229941537604557 15.381358951516535 27.08996055575998 2 0 0
201 1 -0.06269011948575165 6.781406149074229 16.508449085502804 25.307567356631424 1 0 0
208 3 -0.4988272999050762 2.36364175689151 15.617281259583635 28.15481483172395 2 0 0
198 1 -0.04191373805312151 5.777505388289443 15.477931722242152 25.404214085065664 1 0 0
209 1 -0.1684077914083385 1.5600385704967024 13.75699112344071 29.647452890836576 2 0 0
210 1 0.2561711565938073 2.5720178560799667 14.620778601758394 29.08688945742779 2 0 0
207 2 0.1342155544417906 7.047944516656175 13.956149251929968 29.448673219661064 1 0 0
192 3 -0.4351582027675597 3.8269726872124914 16.017951082152074 24.093166815950582 1 0 0
199 1 -0.03869212553611616 6.145199585858736 14.268975543238593 26.242837094510914 1 0 0
195 1 0.4002033988503563 4.392394778509287 15.258043739963174 24.81517619200278 1 0 0
200 2 0.173257620018425 6.6405581806763365 17.34987226921445 24.62058958565016 1 0 0
202 1 -0.1361447119763499 0.8150380542091794 14.203695446378141 26.995300529764283 2 0 0
216 2 0.1594781595160153 4.726312826380555 15.050075825667223 29.124324736407317 2 0 0
215 1 -0.124741362931596 3.940974133720798 14.375589616811984 29.48029548671864 2 0 0
193 4 -0.4157488761620278 3.85938266538465 13.868873771589051 25.312695367989836 1 0 0
186 2 0.2300275053009042 1.589157381775589 14.531427049471393 23.87750873312784 1 0 0
251 3 -0.4732816053603604 2.5990468195917424 16.820587055139626 36.43711953250484 1 0 0
250 4 -0.4215500174473541 2.177439864003108 15.248825816817792 38.305044926947325 1 0 0
256 1 -0.1171368367782043 6.847515941428652 17.012059788781734 38.72205544784117 0 0 0
377 2 0.167213902648282 1.8367677488919782 19.726838632095216 38.5796071450754 1 0 0
255 1 -0.1155184334457553 7.1095011331951135 15.18274691819404 40.2583095176048 0 0 0
259 2 0.1542307537602653 5.0191946436148935 18.18321105643813 39.01770488672669 0 0 0
247 1 0.3933695441014846 2.561318134596894 13.73055300423427 38.39636296400444 1 0 0
291 3 -0.4406366384024893 2.1895399913836275 18.917184601994705 41.32080250550656 1 0 -1
253 2 0.2769508576740562 1.2030722827180165 14.396919345930172 40.67363884222612 1 0 0
261 1 -0.100469692818588 5.052038942628622 16.463886218062246 40.345468658341865 0 0 0
284 4 -0.4164074665877031 6.711688829035047 20.212239697327135 40.78266957864781 0 0 -1
258 1 -0.07653211385325993 5.594795326886267 17.308657381055617 39.33917220740314 0 0 0
290 1 0.3885195505770448 5.377859758718481 20.257197222859773 41.55044099131777 0 0 -1
243 1 -0.0846762798235238 4.572867775080455 14.593264207837526 35.28950540297158 1 0 0
244 2 0.1431927134335474 4.699859083661476 15.475985147272818 34.65818276693341 1 0 0
252 1 0.1866264567904631 1.0737509410110904 15.869709661549646 39.10562208521905 1 0 0
249 1 0.388872824418308 2.7609499124742825 15.757498914319969 36.945401703087335 1 0 0
257 1 0.1896102098103206 5.806791751416272 15.352306943419649 40.84937125632283 0 0 0
246 1 -0.06251002949473095 3.626763299154972 14.6292502696332 36.374885329877436 1 0 0
254 2 0.1692093969263707 7.203419802203374 17.65796802907666 37.91766919922701 0 0 0
283 1 0.4048326736843755 1.0255460175891928 19.10382725258542 41.45843309067759 1 0 -1
266 2 0.2105301128919011 4.061725636411387 16.685019384951683 40.75554017144332 0 0 0
406 2 0.1344344981252311 4.587767853026174 23.196316015442687 8.410457432851029 0 0 0
400 1 -0.04165861525184306 6.186529265572991 24.68826646022624 5.76258218245255 0 0 0
398 1 -0.09576220039108459 4.720384272521882 23.88095363559887 7.574361613976614 0 0 0
335 2 0.1485818783583193 1.9544491028069402 23.07281897195744 12.443371882011743 -1 0 0
417 1 -0.03811573850850933 6.822371438814276 26.10648616233192 8.648065622396322 -1 0 0
402 1 -0.02852432611642541 5.085399610656507 25.633923107798562 5.372883481753915 0 0 0
419 4 -0.4239243960256363 4.672644859446461 26.6768224335076 9.781747292096433 -1 0 0
420 3 -0.4774646315775221 4.85240796260257 24.80829691430798 11.401017001439957 -1 0 0
418 1 0.3906752064522012 5.294150217160416 25.433897034344728 10.489108036991873 -1 0 0
411 3 -0.4339653598274253 1.7866680302027795 24.12948423666248 4.766587154311731 1 0 0
412 1 0.009984058180981699 2.4079357480227523 24.916043799084257 8.065909705857012 0 0 0
422 2 0.139578926571484 0.8776176556570332 23.36471048705479 10.817527529253656 0 0 0
399 1 -0.06269886200879106 5.956405054476594 23.82186332791517 6.891197631057535 0 0 0
414 1 -0.08965812811942916 1.0299934775207398 24.07139365679216 9.998762673526961 0 0 0
397 1 0.0218450981479105 3.6692000482330887 24.81305457114725 7.229670711852698 0 0 0
444 1 -0.1088125922137644 2.56305130974485 26.85853905741074 11.227106729865037 -1 0 0
415 1 -0.04990997459333738 6.600897830470174 25.110771933296004 9.76221084223911 -1 0 0
421 2 0.130357604924097 2.872334193576071 23.189499810305026 9.38255975926716 0 0 0
408 2 0.1678018496729566 3.070896923692107 26.35745340513963 5.769034961335761 0 0 0
314 1 -0.1478965129404921 1.6822465131959656 22.37159504449803 13.23430807087923 -1 0 0
413 1 -0.1068010618004381 2.1598563667541026 23.98408132849643 9.170256499178386 0 0 0
416 1 -0.08824113202953422 1.4494052348763 26.004134748330873 7.828782231869155 0 0 0
401 1 -0.06023597766599748 3.8537895741855217 25.675571418812222 6.093457021318764 0 0 0
445 2 0.1863839642761784 2.914756201103379 26.02541001629882 11.842705944475828 -1 0 0
407 2 0.1612368505485053 6.727157743645913 23.122872625078646 7.212188189099051 0 0 0
403 1 0.3764284155014889 0.8186850104107521 24.823070392245736 4.776286203189116 1 0 0
423 2 0.150441348712811 1.623045986640086 26.751132003281686 7.057183477978994 0 0 0
309 1 -0.1685182551489933 1.6410779997431852 20.979205931573894 12.965554678788905 -1 0 0
425 1 0.3967996258067121 5.669674525811967 27.118450137561155 8.637355512415004 -1 0 0
447 2 0.1647311687898559 0.8868415341194097 27.243535314701806 12.583021677951402 -1 0 0
442 1 0.1833469285869091 3.313771807948874 27.23239478277454 10.067387288265742 -1 0 0
446 1 -0.1394887063506983 1.3873810931180486 27.552204842383233 11.657820406085564 -1 0 0
308 2 0.1732422178928237 0.7997105357503723 22.312401270491037 16.591013992160562 -1 0 0
331 1 -0.1188375679290096 4.282252355876846 26.595024660366285 15.318657808552668 -1 0 0
472 3 -0.4285616135585916 3.970257901634116 26.232919269312347 19.123086209627225 -1 0 0
460 1 -0.08464523645175016 4.826583949996607 25.463569094027676 22.01942626328442 -1 0 0
316 2 0.1456676280917637 3.5488341274017907 22.773862635896858 15.708379099434739 -1 0 0
468 2 0.1525620823223293 4.5041422963711 24.548190006411023 21.519829839430926 -1 0 0
345 4 -0.4029203080872413 6.416673154943506 26.343537615842706 16.777422868858906 -1 0 0
350 3 -0.4554803704043258 7.215980240090582 24.38190271122391 18.09055598687638 -1 0 0
312 1 -0.1599363554228163 1.0221300387310528 21.95025079052988 15.586244508835136 -1 0 0
334 1 -0.07736264869946903 4.952293611194834 24.402934290806535 16.01695192525702 -1 0 0
336 1 -0.1420501549500569 3.7179887062490273 23.84730868504821 15.600219734001792 -1 0 0
464 1 0.3872689565856444 4.404021585865313 27.03875027745355 19.879595179298956 -1 0 0
351 1 0.4233423480220261 7.001473688792283 25.547790694333976 18.00422173301726 -1 0 0
342 1 -0.0675179281874763 1.2040333809118469 26.38376639275688 20.472362648381615 0 0 0
321 2 0.1913893742810922 5.693270323835037 23.709280256730995 16.414050903564714 -1 0 0
349 2 0.1503715592917263 1.1924049348814338 25.3854943009461 20.915289158040714 0 0 0
332 1 0.2005026003350204 5.2723809804811665 25.802502599909545 15.98995564859712 -1 0 0
343 1 -0.01655087656708792 0.8208694237906188 26.5536396348718 19.101779553240654 0 0 0
461 1 -0.04546997963105073 4.84696844116807 26.720038030789834 21.303680529504433 -1 0 0
338 1 0.007040128263384579 1.6343111943334834 27.530265688670088 21.22005851113571 0 0 0
285 1 0.2827764108568132 2.679888700994495 24.691764936443953 15.045544907826075 -1 0 0
333 2 0.1696556649713522 4.480825226919043 27.658341556341 15.154900277893276 -1 0 0
306 1 -0.1293699198070188 3.035504656493675 26.085280603996026 14.875660298128038 -1 0 0
313 1 0.2319645560815822 1.3931320922077253 22.875954184266153 14.551958012939638 -1 0 0
396 2 0.1522578573965386 2.3259432744494495 26.752681274592952 14.383833297581427 -1 0 0
317 3 -0.4770340337728354 1.4703233000643405 24.24357087598018 14.743949126651119 -1 0 0
354 1 0.006580088731197002 2.102054095641055 27.364619080957794 22.64970409556346 0 0 0
365 2 0.1384791409829536 1.8220917213028527 25.14241531457265 22.701600078545944 0 0 0
389 1 0.2533502733659944 4.863984602320803 22.774387695462263 30.38117503319258 0 0 0
473 2 0.1724975161398999 2.738596019576909 26.650817798501663 32.128517812818615 0 0 0
385 1 -0.1275857305406544 3.6769415682537687 22.939492109866304 28.153978744227558 0 0 0
475 1 -0.08074137344642869 6.149157346647584 25.145697534100485 26.18314902351902 -1 0 0
477 1 -0.03421061606126807 7.202402760291594 26.08100350052115 28.199749276994716 -1 0 0
482 3 -0.4997405387647913 1.360691251428778 25.3816697239885 30.40174267389137 0 0 0
358 1 -0.09206358543960311 2.1127912304274785 26.026362099865967 23.26782734761061 0 0 0
366 3 -0.4874295684227098 2.6732599902867915 23.544132430956363 25.153999857193025 0 0 0
367 1 0.3854579423787001 2.741807946236908 24.66676576724554 25.531552061224314 0 0 0
459 1 -0.1053199900814394 5.193853386346033 25.443787778163127 23.370680831654713 -1 0 0
383 1 0.1791710355905564 3.7430501798674563 24.367890742556533 28.068053685333176 0 0 0
484 2 0.15326350244729 6.707852639450666 23.9540358173121 27.921686137517323 -1 0 0
388 2 0.1580355997729212 4.084428739317756 21.097156970831236 29.212727865580085 0 0 0
381 1 -0.1503840055003675 4.992846572210247 24.20770444560141 30.269420922990363 0 0 0
386 2 0.1690633931457569 3.1790556646034944 22.39403683101086 27.344950822945748 0 0 0
380 2 0.1665488012385262 5.513789590130754 24.760642127062006 31.051588136630837 0 0 0
361 4 -0.4272549890981143 3.2007780556858854 25.18744479707314 26.940113392372258 0 0 0
384 3 -0.4951715023848707 5.025885314122183 22.050480819260493 31.509384591765244 0 0 0
357 1 -0.04004656176289091 2.9605146121113823 27.131698168657554 25.377469922531276 0 0 0
467 2 0.1407573465902302 5.133645571959088 24.49327130496233 23.889649973681937 -1 0 0
483 2 0.1409371459674532 5.760191237890613 24.25474531026499 25.681657170288222 -1 0 0
382 1 -0.095587413980324 4.42235868538733 24.942104605678587 29.193311054235476 0 0 0
476 1 -0.05395939897486286 6.684084320369935 24.953628273316593 27.472586077167584 -1 0 0
387 1 -0.1368816748357087 4.2046966623342605 22.18312550239647 29.23716838809431 0 0 0
353 2 0.2040239457713624 4.529312908684647 26.02937644747261 29.223881088457592 0 0 0
359 1 -0.04822109821134941 2.5420615087940996 25.893732683748983 24.62134729953849 0 0 0
480 1 0.4044434518616992 1.2918311480781968 26.23621671108087 29.580928709215982 0 0 0
390 2 0.1904797636420448 0.8608719394165082 23.39623553988226 31.593160411706837 1 0 0
458 1 0.002781972942765511 5.651110015270337 26.633982061367583 24.097628057717476 -1 0 0
360 1 0.3928236440309499 3.4262789399142943 26.723394911407258 26.768244538888755 0 0 0
474 1 0.01359887621709673 6.118638519163122 26.43186961374852 25.5195823958235 -1 0 0
479 1 -0.02120566243364129 7.17881542398548 27.430002071785324 27.51230996945042 -1 0 0
362 3 -0.4331398304264276 3.966956573715601 27.480376235648308 27.514030039398094 0 0 0
478 1 -0.06354847326415569 6.616586195055794 27.584408807644163 26.203754971195476 -1 0 0
502 1 -0.1120025887790608 3.304051896540095 27.519285153866452 31.772428975748813 0 0 0
481 4 -0.4068017303145713 1.7472607118030512 27.744693043853843 29.72438783239048 0 0 0
404 4 -0.4355395393237133 6.9839187467895325 25.964168066746808 41.3987546780914 0 0 -1
500 2 0.1360960735546174 4.69224646746692 27.323217751200705 33.38693566402145 0 0 0
513 1 -0.09854207512811806 2.326308460627624 25.643699348318883 39.63128517174182 1 0 0
488 1 0.2585527234966965 2.592808305556421 27.159869412293833 37.665744157579816 1 0 0
514 2 0.1615610104022488 3.9489161275108646 25.513796155661723 38.172712680023 1 0 0
515 1 0.1720346521863614 1.181463105852404 26.331283685798358 40.11585850014759 1 0 0
427 2 0.1688853681718266 0.9679736793159581 26.287893783249384 35.75395550531897 1 0 0
375 1 0.2518311453512003 7.223214368079963 23.13438473263161 35.05830454053705 0 0 0
491 1 -0.1622345320060128 7.024576896855411 27.54406494052866 34.06899145783625 0 0 0
368 1 0.2301088642831592 1.1487981657771376 22.869715519271107 37.30422521845465 1 0 0
391 2 0.1610423868803617 4.386909265009499 21.40982526193848 34.03776712675794 0 0 0
374 1 -0.1332834069882283 1.1335947650869649 23.51226310976397 33.72768000377114 1 0 0
512 1 -0.1214180718914106 3.047697827038874 26.055939478370483 38.47855092084301 1 0 0