
     Program PWSCF v.7.4 starts on 29Oct2024 at 17:59:52 
        Git branch: develop
        Last git commit: 6e083f7950e599a1a6788f0638610f88c1613670
        Last git commit date: Mon Oct 21 09:56:42 2024 +0000
        Last git commit subject: Merge branch 'features/magnetic_symmetry_method2' 

     This program is part of the open-source Quantum ESPRESSO suite
     for quantum simulation of materials; please cite
         "P. Giannozzi et al., J. Phys.:Condens. Matter 21 395502 (2009);
         "P. Giannozzi et al., J. Phys.:Condens. Matter 29 465901 (2017);
         "P. Giannozzi et al., J. Chem. Phys. 152 154105 (2020);
          URL http://www.quantum-espresso.org", 
     in publications or presentations arising from this work. More details at
     http://www.quantum-espresso.org/quote

     Parallel version (MPI), running on   224 processors

     MPI processes distributed on     4 nodes
     490822 MiB available memory on the printing compute node when the environment starts

     Waiting for input...
     Reading input from standard input

     Current dimensions of program PWSCF are:
     Max number of different atomic species (ntypx) = 10
     Max number of k-points (npk) =  40000
     Max angular momentum in pseudopotentials (lmaxx) =  4

     R & G space division:  proc/nbgrp/npool/nimage =     224
     Subspace diagonalization in iterative solution of the eigenvalue problem:
     one sub-group per band group will be used
     custom distributed-memory algorithm (size of sub-group:  4*  4 procs)


     Parallelization info
     --------------------
     sticks:   dense  smooth     PW     G-vecs:    dense   smooth      PW
     Min          14      14      4                 3120     3120     444
     Max          15      15      5                 3167     3167     476
     Sum        3247    3247    911               703707   703707  104481

     Using Slab Decomposition



     bravais-lattice index     =            0
     lattice parameter (alat)  =      15.6112  a.u.
     unit-cell volume          =   20592.1448 (a.u.)^3
     number of atoms/cell      =          276
     number of atomic types    =            4
     number of electrons       =       872.00
     number of Kohn-Sham states=          436
     kinetic-energy cutoff     =      40.0000  Ry
     charge density cutoff     =     160.0000  Ry
     scf convergence threshold =      1.0E-06
     mixing beta               =       0.5000
     number of iterations used =            8  plain     mixing
     Exchange-correlation= PBE
                           (   1   4   3   4   0   0   0)

     Using Berry phase electric field
     In a.u.(Ry)  cartesian system of reference
        0.0010000000
        0.0000000000
        0.0000000000
     In a.u.(Ry)  crystal system of reference
        0.0010000000
        0.0000000000
        0.0000000000
     Number of iterative cycles:   3


     celldm(1)=  15.611203  celldm(2)=   0.000000  celldm(3)=   0.000000
     celldm(4)=   0.000000  celldm(5)=   0.000000  celldm(6)=   0.000000

     crystal axes: (cart. coord. in units of alat)
               a(1) = (   1.000000   0.000000   0.000000 )  
               a(2) = (   0.000000   1.049006   0.000000 )  
               a(3) = (   0.000000   0.000000   5.159582 )  

     reciprocal axes: (cart. coord. in units 2 pi/alat)
               b(1) = (  1.000000  0.000000  0.000000 )  
               b(2) = (  0.000000  0.953284  0.000000 )  
               b(3) = (  0.000000  0.000000  0.193814 )  


     PseudoPot. # 1 for C  read from file:
     ./C_ONCV_PBE_sr.upf
     MD5 check sum: be7deea5c8a9eeec940f0cd39a542f08
     Pseudo is Norm-conserving + core correction, Zval =  4.0
     Generated using ONCVPSP code by D. R. Hamann
     Using radial grid of 1248 points,  4 beta functions with: 
                l(1) =   0
                l(2) =   0
                l(3) =   1
                l(4) =   1

     PseudoPot. # 2 for N  read from file:
     ./N_ONCV_PBE_sr.upf
     MD5 check sum: 18c6af81dac9c5a2d6d52ed11cf7bfee
     Pseudo is Norm-conserving + core correction, Zval =  5.0
     Generated using ONCVPSP code by D. R. Hamann
     Using radial grid of 1058 points,  4 beta functions with: 
                l(1) =   0
                l(2) =   0
                l(3) =   1
                l(4) =   1

     PseudoPot. # 3 for H  read from file:
     ./H_ONCV_PBE_sr.upf
     MD5 check sum: 31ee981bebb029a36324f200b357dac4
     Pseudo is Norm-conserving, Zval =  1.0
     Generated using ONCVPSP code by D. R. Hamann
     Using radial grid of 1166 points,  3 beta functions with: 
                l(1) =   0
                l(2) =   0
                l(3) =   1

     PseudoPot. # 4 for O  read from file:
     ./O_ONCV_PBE_sr.upf
     MD5 check sum: b0122293cc47a814ad0627188f9a6d95
     Pseudo is Norm-conserving + core correction, Zval =  6.0
     Generated using ONCVPSP code by D. R. Hamann
     Using radial grid of  936 points,  5 beta functions with: 
                l(1) =   0
                l(2) =   0
                l(3) =   1
                l(4) =   1
                l(5) =   2

     atomic species   valence    mass     pseudopotential
     C                 4.00    12.01070     C ( 1.00)
     N                 5.00    14.00670     N ( 1.00)
     H                 1.00     1.00794     H ( 1.00)
     O                 6.00    15.99900     O ( 1.00)

     No symmetry found


                                    s                        frac. trans.

      isym =  1     identity                                     

 cryst.   s( 1) = (     1          0          0      )
                  (     0          1          0      )
                  (     0          0          1      )

 cart.    s( 1) = (  1.0000000  0.0000000  0.0000000 )
                  (  0.0000000  1.0000000  0.0000000 )
                  (  0.0000000  0.0000000  1.0000000 )


   Cartesian axes

     site n.     atom                  positions (alat units)
         1        H      tau(   1) = (   0.4764639   0.0061428   0.2827054  )
         2        C      tau(   2) = (   0.5032714  -0.0806930   0.3784653  )
         3        C      tau(   3) = (   0.5320111  -0.2497535   0.3376288  )
         4        H      tau(   4) = (   0.6840542  -0.1571422   1.0700925  )
         5        H      tau(   5) = (   0.4916543   0.1019978   0.5647667  )
         6        H      tau(   6) = (   0.7316891   0.1086382   0.9643389  )
         7        C      tau(   7) = (   0.5114709  -0.0261464   0.5392857  )
         8        C      tau(   8) = (   0.5667493  -0.3614609   0.4701415  )
         9        H      tau(   9) = (   0.5880241  -0.4895327   0.4439420  )
        10        C      tau(  10) = (   0.5487308  -0.1363195   0.6718587  )
        11        C      tau(  11) = (   0.6484171  -0.2061412   0.9500438  )
        12        C      tau(  12) = (   0.5743127  -0.3060035   0.6303065  )
        13        H      tau(  13) = (   0.5656351  -0.3101495   0.9709939  )
        14        C      tau(  14) = (   0.6942816   0.0768674   0.8390109  )
        15        H      tau(  15) = (   0.7601200  -0.2542188   0.8918862  )
        16        H      tau(  16) = (   0.6007761  -0.3942959   0.7250587  )
        17        C      tau(  17) = (   0.5657802  -0.0694510   0.8387084  )
        18        H      tau(  18) = (   0.8063115   0.0444906   0.7721418  )
        19        H      tau(  19) = (   0.6426249   0.1872175   0.7825212  )
        20        C      tau(  20) = (   0.4119693  -0.0112222   0.9148263  )
        21        H      tau(  21) = (   0.2550744  -0.1833761   0.7865607  )
        22        H      tau(  22) = (   0.5142097   0.1889113   1.0607790  )
        23        C      tau(  23) = (   0.2583581  -0.0889451   0.8783168  )
        24        C      tau(  24) = (   0.4048010   0.1211484   1.0309282  )
        25        C      tau(  25) = (   0.1148806  -0.0501879   0.9622148  )
        26        C      tau(  26) = (   0.2599146   0.1674379   1.1078287  )
        27        H      tau(  27) = (   0.0047821  -0.1189387   0.9370500  )
        28        H      tau(  28) = (   0.2607729   0.2713082   1.1898170  )
        29        C      tau(  29) = (   0.1118181   0.0762190   1.0839976  )
        30        O      tau(  30) = (  -0.0254995   0.0997563   1.1687026  )
        31        H      tau(  31) = (   0.2305001   0.1077432   1.3886493  )
        32        C      tau(  32) = (  -0.0232197   0.1586928   1.3204644  )
        33        C      tau(  33) = (   0.1213475   0.1751941   1.4200892  )
        34        H      tau(  34) = (  -0.2857132   0.2008411   1.3152773  )
        35        C      tau(  35) = (  -0.1729079   0.2247153   1.3798902  )
        36        C      tau(  36) = (   0.1276263   0.2776363   1.5557392  )
        37        H      tau(  37) = (   0.2405844   0.2920017   1.6231750  )
        38        C      tau(  38) = (  -0.1731658   0.3238098   1.5214752  )
        39        C      tau(  39) = (  -0.0163604   0.3607989   1.6087713  )
        40        C      tau(  40) = (  -0.3115053   0.4078339   1.6131793  )
        41        O      tau(  41) = (  -0.4490307   0.4031626   1.5724537  )
        42        C      tau(  42) = (  -0.0478352   0.4746267   1.7509171  )
        43        N      tau(  43) = (  -0.2355136   0.5017296   1.7608240  )
        44        O      tau(  44) = (   0.0541684   0.5318437   1.8347726  )
        45        H      tau(  45) = (  -0.5642094   0.5076777   1.8111272  )
        46        C      tau(  46) = (  -0.3259360   0.5995912   1.8822120  )
        47        C      tau(  47) = (  -0.4993948   0.5904953   1.8904281  )
        48        H      tau(  48) = (  -0.1211360   0.7231489   1.9915347  )
        49        C      tau(  49) = (  -0.2530163   0.7106704   1.9941049  )
        50        C      tau(  50) = (  -0.5918344   0.6870095   1.9992911  )
        51        H      tau(  51) = (  -0.7243999   0.6787076   2.0004882  )
        52        C      tau(  52) = (  -0.3379853   0.8114691   2.1070818  )
        53        C      tau(  53) = (  -0.5117055   0.7947580   2.1064429  )
        54        O      tau(  54) = (  -0.4954642   1.0156779   2.3827731  )
        55        N      tau(  55) = (  -0.2599230   0.9293751   2.2176598  )
        56        H      tau(  56) = (  -0.5864137   0.8668774   2.1878880  )
        57        C      tau(  57) = (  -0.3544773   1.0188726   2.3537279  )
        58        O      tau(  58) = (   0.0409654   0.9127920   2.1760299  )
        59        C      tau(  59) = (  -0.0715489   0.9653212   2.2473351  )
        60        C      tau(  60) = (  -0.2303158   1.1102560   2.4567069  )
        61        C      tau(  61) = (  -0.0613656   1.0795863   2.3924999  )
        62        H      tau(  62) = (  -0.3825649   1.2352004   2.6368404  )
        63        C      tau(  63) = (  -0.2591007   1.2136635   2.5938612  )
        64        C      tau(  64) = (   0.0695673   1.1611529   2.4718791  )
        65        H      tau(  65) = (   0.1931190   1.1482620   2.4262685  )
        66        C      tau(  66) = (  -0.1245654   1.2856394   2.6707959  )
        67        C      tau(  67) = (   0.0380013   1.2606799   2.6093281  )
        68        H      tau(  68) = (  -0.1452495   1.3620465   2.7766764  )
        69        H      tau(  69) = (   0.2770889   1.0369710   2.6531361  )
        70        O      tau(  70) = (   0.1546425   1.3529662   2.6827540  )
        71        C      tau(  71) = (   0.3294743   1.1172272   2.7437020  )
        72        C      tau(  72) = (   0.2839083   1.2875071   2.7517134  )
        73        H      tau(  73) = (   0.4620044   0.9233482   2.8502026  )
        74        H      tau(  74) = (   0.5642083   0.8045700   3.0474273  )
        75        H      tau(  75) = (   0.8772706   1.1006304   3.2056877  )
        76        C      tau(  76) = (   0.4374634   1.0530291   2.8568496  )
        77        C      tau(  77) = (   0.3680287   1.3897170   2.8693836  )
        78        H      tau(  78) = (   0.3393126   1.5188701   2.8746743  )
        79        C      tau(  79) = (   0.6715554   0.8857306   3.0459388  )
        80        C      tau(  80) = (   0.5170526   1.1499130   2.9817539  )
        81        C      tau(  81) = (   0.7974476   1.1530704   3.1106979  )
        82        H      tau(  82) = (   0.7228264   0.8871319   2.9213468  )
        83        C      tau(  83) = (   0.4784816   1.3225967   2.9782575  )
        84        H      tau(  84) = (   0.8619833   1.1411961   2.9932232  )
        85        H      tau(  85) = (   0.7646497   0.8276576   3.1239285  )
        86        H      tau(  86) = (   0.7844342   1.2838442   3.1361589  )
        87        C      tau(  87) = (   0.6280048   1.0659277   3.1056068  )
        88        H      tau(  88) = (   0.5355467   1.4039096   3.0658427  )
        89        C      tau(  89) = (   0.5565249   1.0619066   3.2710183  )
        90        H      tau(  90) = (   0.7505448   0.9126570   3.3792721  )
        91        H      tau(  91) = (   0.3382717   1.2064821   3.2163769  )
        92        C      tau(  92) = (   0.6360276   0.9750241   3.4022620  )
        93        C      tau(  93) = (   0.4046800   1.1418150   3.3111144  )
        94        C      tau(  94) = (   0.5688506   0.9650673   3.5583175  )
        95        C      tau(  95) = (   0.3411741   1.1390300   3.4689080  )
        96        H      tau(  96) = (   0.6305454   0.8928060   3.6495502  )
        97        H      tau(  97) = (   0.2276817   1.2022128   3.4939943  )
        98        C      tau(  98) = (   0.4195791   1.0489329   3.5988973  )
        99        O      tau(  99) = (   0.3443099   1.0398973   3.7400897  )
       100        H      tau( 100) = (   0.6470109   0.9877166   3.8837877  )
       101        C      tau( 101) = (   0.3876655   0.9380872   3.8643982  )
       102        C      tau( 102) = (   0.5466223   0.9175664   3.9336480  )
       103        H      tau( 103) = (   0.1336196   0.8689060   3.8937720  )
       104        C      tau( 104) = (   0.2568027   0.8548147   3.9401553  )
       105        C      tau( 105) = (   0.5812044   0.8120352   4.0648756  )
       106        H      tau( 106) = (   0.7056869   0.7988018   4.1082927  )
       107        C      tau( 107) = (   0.2847082   0.7569030   4.0814554  )
       108        C      tau( 108) = (   0.4530575   0.7270763   4.1459087  )
       109        C      tau( 109) = (   0.1620227   0.6723804   4.1920396  )
       110        O      tau( 110) = (   0.0200302   0.6747702   4.1682079  )
       111        C      tau( 111) = (   0.4431573   0.6159749   4.2942204  )
       112        N      tau( 112) = (   0.2592124   0.5866319   4.3304235  )
       113        O      tau( 113) = (   0.5556763   0.5638479   4.3672521  )
       114        C      tau( 114) = (   0.1860320   0.4864147   4.4623655  )
       115        H      tau( 115) = (   0.4005287   0.3551647   4.5330051  )
       116        H      tau( 116) = (  -0.0571933   0.5900735   4.4305044  )
       117        C      tau( 117) = (   0.2719289   0.3722106   4.5606945  )
       118        C      tau( 118) = (   0.0169214   0.5031622   4.4975943  )
       119        C      tau( 119) = (   0.2065028   0.2785043   4.6916810  )
       120        C      tau( 120) = (  -0.0585751   0.4081560   4.6198357  )
       121        H      tau( 121) = (  -0.1885534   0.4215052   4.6428738  )
       122        O      tau( 122) = (   0.0924898   0.0564859   4.9867750  )
       123        C      tau( 123) = (   0.0353651   0.2974467   4.7128926  )
       124        N      tau( 124) = (   0.3018296   0.1777520   4.8070070  )
       125        C      tau( 125) = (   0.2303642   0.0737382   4.9500078  )
       126        O      tau( 126) = (   0.5911397   0.2136796   4.7322123  )
       127        C      tau( 127) = (   0.4899566   0.1543473   4.8152353  )
       128        H      tau( 128) = (  -0.0273747   0.2282539   4.8059498  )
       129        C      tau( 129) = (   0.3699368  -0.0102969   5.0374444  )
       130        C      tau( 130) = (   0.5257532   0.0372153   4.9550884  )
       131        H      tau( 131) = (   0.2628773  -0.1525336   5.2362847  )
       132        C      tau( 132) = (   0.3748943  -0.1200859   5.1734905  )
       133        C      tau( 133) = (   0.6747819  -0.0318982   5.0129817  )
       134        H      tau( 134) = (   0.7895328   0.0008371   4.9557826  )
       135        C      tau( 135) = (   0.5235547  -0.1886570   5.2235943  )
       136        C      tau( 136) = (   0.6711171  -0.1461378   5.1420302  )
       137        O      tau( 137) = (   0.5298334  -0.3045817   5.3482554  )
       138        H      tau( 138) = (   0.7848198  -0.2020297   5.1805963  )
       139        H      tau( 139) = (   0.7743676   0.5550069   0.1656280  )
       140        C      tau( 140) = (   0.8330831   0.4682280   0.2462271  )
       141        C      tau( 141) = (   0.7880922   0.2984555   0.2396373  )
       142        H      tau( 142) = (   1.3575308   0.3574022   0.4875585  )
       143        H      tau( 143) = (   0.9729054   0.6550483   0.3622540  )
       144        H      tau( 144) = (   1.2370180   0.6645984   0.4087408  )
       145        C      tau( 145) = (   0.9477350   0.5252985   0.3588231  )
       146        C      tau( 146) = (   0.8661126   0.1893671   0.3531410  )
       147        H      tau( 147) = (   0.8328216   0.0610514   0.3531777  )
       148        C      tau( 148) = (   1.0295998   0.4159797   0.4701596  )
       149        C      tau( 149) = (   1.3045000   0.3840347   0.6086759  )
       150        C      tau( 150) = (   0.9840416   0.2461311   0.4624898  )
       151        H      tau( 151) = (   1.3987541   0.4510614   0.6777742  )
       152        C      tau( 152) = (   1.2023491   0.6602905   0.5390378  )
       153        H      tau( 153) = (   1.2839719   0.2682148   0.6733505  )
       154        H      tau( 154) = (   1.0394391   0.1595997   0.5460616  )
       155        C      tau( 155) = (   1.1406855   0.4877335   0.5921444  )
       156        H      tau( 156) = (   1.1110101   0.7564523   0.5627865  )
       157        H      tau( 157) = (   1.3120474   0.6955587   0.6077383  )
       158        C      tau( 158) = (   1.0541959   0.5043164   0.7566705  )
       159        H      tau( 159) = (   0.8323623   0.3753873   0.6824918  )
       160        H      tau( 160) = (   1.2429070   0.6401441   0.8876278  )
       161        C      tau( 161) = (   0.8906889   0.4410735   0.7815675  )
       162        C      tau( 162) = (   1.1206171   0.5907735   0.8960299  )
       163        C      tau( 163) = (   0.8047290   0.4609267   0.9256709  )
       164        C      tau( 164) = (   1.0346061   0.6173932   1.0392015  )
       165        H      tau( 165) = (   0.6833458   0.4099363   0.9360309  )
       166        H      tau( 166) = (   1.0914333   0.6885664   1.1339168  )
       167        C      tau( 167) = (   0.8714778   0.5536848   1.0609917  )
       168        O      tau( 168) = (   0.7697624   0.5879465   1.1815867  )
       169        H      tau( 169) = (   1.0603435   0.6352204   1.3549016  )
       170        C      tau( 170) = (   0.7989584   0.6751085   1.3172052  )
       171        C      tau( 171) = (   0.9531949   0.6992151   1.3980806  )
       172        H      tau( 172) = (   0.5375562   0.7259775   1.3309391  )
       173        C      tau( 173) = (   0.6561514   0.7485459   1.3851797  )
       174        C      tau( 174) = (   0.9707435   0.8006551   1.5340112  )
       175        H      tau( 175) = (   1.0891877   0.8157372   1.5911915  )
       176        C      tau( 176) = (   0.6685412   0.8519243   1.5224163  )
       177        C      tau( 177) = (   0.8318095   0.8843441   1.5989330  )
       178        C      tau( 178) = (   0.5364702   0.9448784   1.6162389  )
       179        O      tau( 179) = (   0.3983141   0.9521402   1.5765546  )
       180        C      tau( 180) = (   0.8100669   1.0031520   1.7383430  )
       181        N      tau( 181) = (   0.6214586   1.0345046   1.7578653  )
       182        O      tau( 182) = (   0.9187167   1.0647235   1.8094497  )
       183        H      tau( 183) = (   0.2879142   1.0874429   1.8169130  )
       184        C      tau( 184) = (   0.5416587   1.1516700   1.8700943  )
       185        C      tau( 185) = (   0.3702152   1.1535431   1.8972190  )
       186        H      tau( 186) = (   0.7634121   1.2628869   1.9479982  )
       187        C      tau( 187) = (   0.6345119   1.2532255   1.9760141  )
       188        C      tau( 188) = (   0.3047863   1.2324862   2.0355193  )
       189        H      tau( 189) = (   0.1750895   1.2234409   2.0593729  )
       190        C      tau( 190) = (   0.5763620   1.3386064   2.1159957  )
       191        C      tau( 191) = (   0.4063685   1.3206650   2.1437742  )
       192        O      tau( 192) = (   0.9583297   1.3644541   2.1311556  )
       193        N      tau( 193) = (   0.6832624   1.4377251   2.2226341  )
       194        H      tau( 194) = (   0.3522611   1.3763026   2.2504804  )
       195        C      tau( 195) = (   0.8711661   1.4450559   2.2125790  )
       196        O      tau( 196) = (   0.5030915   1.5679945   2.4281614  )
       197        C      tau( 197) = (   0.6332714   1.5488660   2.3705982  )
       198        C      tau( 198) = (   0.9322168   1.5670224   2.3382273  )
       199        C      tau( 199) = (   0.7888057   1.6274307   2.4338302  )
       200        H      tau( 200) = (   1.1966944   1.5855814   2.3029001  )
       201        C      tau( 201) = (   1.0923463   1.6265699   2.3730520  )
       202        C      tau( 202) = (   0.8175042   1.7437285   2.5606261  )
       203        H      tau( 203) = (   0.7153872   1.7894628   2.6311999  )
       204        C      tau( 204) = (   1.1123437   1.7403943   2.5011619  )
       205        C      tau( 205) = (   0.9769388   1.7982022   2.5934198  )
       206        H      tau( 206) = (   1.2340759   1.7848932   2.5288214  )
       207        H      tau( 207) = (   1.1216279   2.0893341   2.9618669  )
       208        O      tau( 208) = (   1.0061929   1.9138230   2.7150002  )
       209        C      tau( 209) = (   1.0990819   1.9611619   2.9854217  )
       210        C      tau( 210) = (   1.0521320   1.8531970   2.8542680  )
       211        H      tau( 211) = (   1.1416118   1.9870690   3.2412350  )
       212        H      tau( 212) = (   1.1655685   1.4151061   3.2602877  )
       213        H      tau( 213) = (   1.3391377   1.8351305   3.3683586  )
       214        C      tau( 214) = (   1.1120815   1.9021303   3.1444297  )
       215        C      tau( 215) = (   1.0359348   1.6808784   2.8889453  )
       216        H      tau( 216) = (   1.0063385   1.5970327   2.7914698  )
       217        C      tau( 217) = (   1.2322797   1.5116774   3.3255854  )
       218        C      tau( 218) = (   1.0921365   1.7307250   3.1804537  )
       219        C      tau( 219) = (   1.2326143   1.7981987   3.4422387  )
       220        H      tau( 220) = (   1.3419246   1.5400439   3.2524800  )
       221        C      tau( 221) = (   1.0564675   1.6215209   3.0468082  )
       222        H      tau( 222) = (   1.1638798   1.9098612   3.4732905  )
       223        H      tau( 223) = (   1.2733169   1.4616303   3.4430720  )
       224        H      tau( 224) = (   1.2812867   1.7473736   3.5570487  )
       225        C      tau( 225) = (   1.1225006   1.6716864   3.3480941  )
       226        H      tau( 226) = (   1.0453364   1.4909131   3.0662109  )
       227        C      tau( 227) = (   0.9725148   1.6366339   3.4442701  )
       228        H      tau( 228) = (   0.8587010   1.4825194   3.2600534  )
       229        H      tau( 229) = (   1.0356970   1.7783601   3.6616318  )
       230        C      tau( 230) = (   0.8456135   1.5338294   3.3806634  )
       231        C      tau( 231) = (   0.9446844   1.7008977   3.6052334  )
       232        C      tau( 232) = (   0.7047554   1.4947221   3.4712956  )
       233        C      tau( 233) = (   0.8017295   1.6679168   3.6945189  )
       234        H      tau( 234) = (   0.6147183   1.4110929   3.4216823  )
       235        H      tau( 235) = (   0.7863675   1.7205108   3.8152610  )
       236        C      tau( 236) = (   0.6788478   1.5634218   3.6289999  )
       237        O      tau( 237) = (   0.5351415   1.5293738   3.7075793  )
       238        H      tau( 238) = (   0.8172457   1.4200896   3.8325512  )
       239        C      tau( 239) = (   0.5501388   1.4376893   3.8380087  )
       240        C      tau( 240) = (   0.7083479   1.3909770   3.9009873  )
       241        H      tau( 241) = (   0.2855264   1.4127610   3.8703247  )
       242        C      tau( 242) = (   0.4055531   1.3878254   3.9211067  )
       243        C      tau( 243) = (   0.7277555   1.3096847   4.0491161  )
       244        H      tau( 244) = (   0.8486678   1.2796302   4.0941231  )
       245        C      tau( 245) = (   0.4207262   1.3007923   4.0690991  )
       246        C      tau( 246) = (   0.5862983   1.2616983   4.1391060  )
       247        C      tau( 247) = (   0.2916693   1.2251742   4.1787861  )
       248        O      tau( 248) = (   0.1497574   1.2423478   4.1620145  )
       249        C      tau( 249) = (   0.5715995   1.1611060   4.2929102  )
       250        N      tau( 250) = (   0.3823403   1.1277370   4.3133068  )
       251        O      tau( 251) = (   0.6814198   1.1174617   4.3745555  )
       252        C      tau( 252) = (   0.3008602   1.0290314   4.4390834  )
       253        H      tau( 253) = (   0.5195365   0.9521000   4.5614476  )
       254        H      tau( 254) = (   0.0525105   1.0834639   4.3581417  )
       255        C      tau( 255) = (   0.3876151   0.9379923   4.5587849  )
       256        C      tau( 256) = (   0.1272316   1.0158916   4.4437389  )
       257        C      tau( 257) = (   0.3151981   0.8277745   4.6720183  )
       258        C      tau( 258) = (   0.0478112   0.9175372   4.5603085  )
       259        H      tau( 259) = (  -0.0845209   0.9127531   4.5631239  )
       260        O      tau( 260) = (   0.2038967   0.5691259   4.9377110  )
       261        C      tau( 261) = (   0.1414680   0.8242625   4.6710300  )
       262        N      tau( 262) = (   0.4110668   0.7176217   4.7767874  )
       263        C      tau( 263) = (   0.3412824   0.5943578   4.9051271  )
       264        O      tau( 264) = (   0.7001144   0.7847356   4.7167003  )
       265        C      tau( 265) = (   0.6006338   0.7061270   4.7846065  )
       266        H      tau( 266) = (   0.0773456   0.7474936   4.7569244  )
       267        C      tau( 267) = (   0.4852670   0.5105012   4.9873236  )
       268        C      tau( 268) = (   0.6385711   0.5749530   4.9100017  )
       269        H      tau( 269) = (   0.3866246   0.3508645   5.1754462  )
       270        C      tau( 270) = (   0.4967648   0.3943891   5.1143918  )
       271        C      tau( 271) = (   0.7925917   0.5086709   4.9571522  )
       272        H      tau( 272) = (   0.9037149   0.5506033   4.8985397  )
       273        C      tau( 273) = (   0.6521232   0.3382952   5.1644286  )
       274        C      tau( 274) = (   0.7969881   0.3886638   5.0784408  )
       275        O      tau( 275) = (   0.6688107   0.2484122   5.3013518  )
       276        H      tau( 276) = (   0.9143337   0.3366633   5.1102534  )

   Crystallographic axes

     site n.     atom                  positions (cryst. coord.)
         1        H      tau(   1) = (  0.4764639  0.0058558  0.0547923  )
         2        C      tau(   2) = (  0.5032714 -0.0769233  0.0733519  )
         3        C      tau(   3) = (  0.5320111 -0.2380859  0.0654372  )
         4        H      tau(   4) = (  0.6840542 -0.1498010  0.2073991  )
         5        H      tau(   5) = (  0.4916543  0.0972328  0.1094598  )
         6        H      tau(   6) = (  0.7316891  0.1035630  0.1869025  )
         7        C      tau(   7) = (  0.5114709 -0.0249250  0.1045212  )
         8        C      tau(   8) = (  0.5667493 -0.3445747  0.0911201  )
         9        H      tau(   9) = (  0.5880241 -0.4666634  0.0860422  )
        10        C      tau(  10) = (  0.5487308 -0.1299511  0.1302157  )
        11        C      tau(  11) = (  0.6484171 -0.1965111  0.1841319  )
        12        C      tau(  12) = (  0.5743127 -0.2917080  0.1221623  )
        13        H      tau(  13) = (  0.5656351 -0.2956604  0.1881924  )
        14        C      tau(  14) = (  0.6942816  0.0732765  0.1626122  )
        15        H      tau(  15) = (  0.7601200 -0.2423426  0.1728602  )
        16        H      tau(  16) = (  0.6007761 -0.3758758  0.1405266  )
        17        C      tau(  17) = (  0.5657802 -0.0662065  0.1625535  )
        18        H      tau(  18) = (  0.8063115  0.0424122  0.1496520  )
        19        H      tau(  19) = (  0.6426249  0.1784713  0.1516637  )
        20        C      tau(  20) = (  0.4119693 -0.0106980  0.1773063  )
        21        H      tau(  21) = (  0.2550744 -0.1748094  0.1524466  )
        22        H      tau(  22) = (  0.5142097  0.1800860  0.2055940  )
        23        C      tau(  23) = (  0.2583581 -0.0847899  0.1702302  )
        24        C      tau(  24) = (  0.4048010  0.1154887  0.1998085  )
        25        C      tau(  25) = (  0.1148806 -0.0478433  0.1864908  )
        26        C      tau(  26) = (  0.2599146  0.1596158  0.2147129  )
        27        H      tau(  27) = (  0.0047821 -0.1133823  0.1816135  )
        28        H      tau(  28) = (  0.2607729  0.2586336  0.2306034  )
        29        C      tau(  29) = (  0.1118181  0.0726583  0.2100941  )
        30        O      tau(  30) = ( -0.0254995  0.0950960  0.2265111  )
        31        H      tau(  31) = (  0.2305001  0.1027099  0.2691399  )
        32        C      tau(  32) = ( -0.0232197  0.1512792  0.2559247  )
        33        C      tau(  33) = (  0.1213475  0.1670097  0.2752334  )
        34        H      tau(  34) = ( -0.2857132  0.1914585  0.2549193  )
        35        C      tau(  35) = ( -0.1729079  0.2142174  0.2674422  )
        36        C      tau(  36) = (  0.1276263  0.2646661  0.3015243  )
        37        H      tau(  37) = (  0.2405844  0.2783604  0.3145943  )
        38        C      tau(  38) = ( -0.1731658  0.3086826  0.2948834  )
        39        C      tau(  39) = ( -0.0163604  0.3439436  0.3118026  )
        40        C      tau(  40) = ( -0.3115053  0.3887814  0.3126570  )
        41        O      tau(  41) = ( -0.4490307  0.3843283  0.3047638  )
        42        C      tau(  42) = ( -0.0478352  0.4524538  0.3393525  )
        43        N      tau(  43) = ( -0.2355136  0.4782906  0.3412726  )
        44        O      tau(  44) = (  0.0541684  0.5069978  0.3556049  )
        45        H      tau(  45) = ( -0.5642094  0.4839608  0.3510221  )
        46        C      tau(  46) = ( -0.3259360  0.5715804  0.3647993  )
        47        C      tau(  47) = ( -0.4993948  0.5629095  0.3663917  )
        48        H      tau(  48) = ( -0.1211360  0.6893659  0.3859876  )
        49        C      tau(  49) = ( -0.2530163  0.6774703  0.3864857  )
        50        C      tau(  50) = ( -0.5918344  0.6549148  0.3874909  )
        51        H      tau(  51) = ( -0.7243999  0.6470008  0.3877229  )
        52        C      tau(  52) = ( -0.3379853  0.7735602  0.4083823  )
        53        C      tau(  53) = ( -0.5117055  0.7576297  0.4082584  )
        54        O      tau(  54) = ( -0.4954642  0.9682290  0.4618151  )
        55        N      tau(  55) = ( -0.2599230  0.8859579  0.4298138  )
        56        H      tau(  56) = ( -0.5864137  0.8263800  0.4240436  )
        57        C      tau(  57) = ( -0.3544773  0.9712744  0.4561858  )
        58        O      tau(  58) = (  0.0409654  0.8701496  0.4217454  )
        59        C      tau(  59) = ( -0.0715489  0.9202248  0.4355653  )
        60        C      tau(  60) = ( -0.2303158  1.0583887  0.4761445  )
        61        C      tau(  61) = ( -0.0613656  1.0291518  0.4637003  )
        62        H      tau(  62) = ( -0.3825649  1.1774961  0.5110570  )
        63        C      tau(  63) = ( -0.2591007  1.1569654  0.5027270  )
        64        C      tau(  64) = (  0.0695673  1.1069079  0.4790851  )
        65        H      tau(  65) = (  0.1931190  1.0946192  0.4702452  )
        66        C      tau(  66) = ( -0.1245654  1.2255789  0.5176380  )
        67        C      tau(  67) = (  0.0380013  1.2017854  0.5057247  )
        68        H      tau(  68) = ( -0.1452495  1.2984165  0.5381592  )
        69        H      tau(  69) = (  0.2770889  0.9885274  0.5142153  )
        70        O      tau(  70) = (  0.1546425  1.2897604  0.5199557  )
        71        C      tau(  71) = (  0.3294743  1.0650343  0.5317682  )
        72        C      tau(  72) = (  0.2839083  1.2273593  0.5333210  )
        73        H      tau(  73) = (  0.4620044  0.8802126  0.5524096  )
        74        H      tau(  74) = (  0.5642083  0.7669834  0.5906345  )
        75        H      tau(  75) = (  0.8772706  1.0492128  0.6213076  )
        76        C      tau(  76) = (  0.4374634  1.0038352  0.5536979  )
        77        C      tau(  77) = (  0.3680287  1.3247943  0.5561271  )
        78        H      tau(  78) = (  0.3393126  1.4479138  0.5571525  )
        79        C      tau(  79) = (  0.6715554  0.8443524  0.5903460  )
        80        C      tau(  80) = (  0.5170526  1.0961931  0.5779061  )
        81        C      tau(  81) = (  0.7974476  1.0992030  0.6028973  )
        82        H      tau(  82) = (  0.7228264  0.8456882  0.5661983  )
        83        C      tau(  83) = (  0.4784816  1.2608096  0.5772284  )
        84        H      tau(  84) = (  0.8619833  1.0878834  0.5801290  )
        85        H      tau(  85) = (  0.7646497  0.7889923  0.6054615  )
        86        H      tau(  86) = (  0.7844342  1.2238675  0.6078319  )
        87        C      tau(  87) = (  0.6280048  1.0161313  0.6019105  )
        88        H      tau(  88) = (  0.5355467  1.3383239  0.5942037  )
        89        C      tau(  89) = (  0.5565249  1.0122980  0.6339696  )
        90        H      tau(  90) = (  0.7505448  0.8700208  0.6549507  )
        91        H      tau(  91) = (  0.3382717  1.1501195  0.6233793  )
        92        C      tau(  92) = (  0.6360276  0.9294744  0.6594065  )
        93        C      tau(  93) = (  0.4046800  1.0884734  0.6417408  )
        94        C      tau(  94) = (  0.5688506  0.9199828  0.6896523  )
        95        C      tau(  95) = (  0.3411741  1.0858186  0.6723234  )
        96        H      tau(  96) = (  0.6305454  0.8510972  0.7073345  )
        97        H      tau(  97) = (  0.2276817  1.1460497  0.6771855  )
        98        C      tau(  98) = (  0.4195791  0.9999304  0.6975172  )
        99        O      tau(  99) = (  0.3443099  0.9913169  0.7248823  )
       100        H      tau( 100) = (  0.6470109  0.9415740  0.7527330  )
       101        C      tau( 101) = (  0.3876655  0.8942631  0.7489750  )
       102        C      tau( 102) = (  0.5466223  0.8747009  0.7623966  )
       103        H      tau( 103) = (  0.1336196  0.8283137  0.7546681  )
       104        C      tau( 104) = (  0.2568027  0.8148808  0.7636578  )
       105        C      tau( 105) = (  0.5812044  0.7740997  0.7878304  )
       106        H      tau( 106) = (  0.7056869  0.7614846  0.7962452  )
       107        C      tau( 107) = (  0.2847082  0.7215431  0.7910438  )
       108        C      tau( 108) = (  0.4530575  0.6931099  0.8035357  )
       109        C      tau( 109) = (  0.1620227  0.6409692  0.8124766  )
       110        O      tau( 110) = (  0.0200302  0.6432473  0.8078576  )
       111        C      tau( 111) = (  0.4431573  0.5871987  0.8322807  )
       112        N      tau( 112) = (  0.2592124  0.5592266  0.8392973  )
       113        O      tau( 113) = (  0.5556763  0.5375069  0.8464352  )
       114        C      tau( 114) = (  0.1860320  0.4636911  0.8648695  )
       115        H      tau( 115) = (  0.4005287  0.3385727  0.8785605  )
       116        H      tau( 116) = ( -0.0571933  0.5625073  0.8586944  )
       117        C      tau( 117) = (  0.2719289  0.3548222  0.8839271  )
       118        C      tau( 118) = (  0.0169214  0.4796563  0.8716974  )
       119        C      tau( 119) = (  0.2065028  0.2654936  0.9093141  )
       120        C      tau( 120) = ( -0.0585751  0.3890884  0.8953895  )
       121        H      tau( 121) = ( -0.1885534  0.4018140  0.8998546  )
       122        O      tau( 122) = (  0.0924898  0.0538470  0.9665075  )
       123        C      tau( 123) = (  0.0353651  0.2835511  0.9134252  )
       124        N      tau( 124) = (  0.3018296  0.1694481  0.9316660  )
       125        C      tau( 125) = (  0.2303642  0.0702934  0.9593815  )
       126        O      tau( 126) = (  0.5911397  0.2036972  0.9171697  )
       127        C      tau( 127) = (  0.4899566  0.1471367  0.9332607  )
       128        H      tau( 128) = ( -0.0273747  0.2175907  0.9314610  )
       129        C      tau( 129) = (  0.3699368 -0.0098159  0.9763280  )
       130        C      tau( 130) = (  0.5257532  0.0354767  0.9603662  )
       131        H      tau( 131) = (  0.2628773 -0.1454077  1.0148660  )
       132        C      tau( 132) = (  0.3748943 -0.1144759  1.0026956  )
       133        C      tau( 133) = (  0.6747819 -0.0304080  0.9715868  )
       134        H      tau( 134) = (  0.7895328  0.0007980  0.9605008  )
       135        C      tau( 135) = (  0.5235547 -0.1798436  1.0124065  )
       136        C      tau( 136) = (  0.6711171 -0.1393108  0.9965982  )
       137        O      tau( 137) = (  0.5298334 -0.2903527  1.0365675  )
       138        H      tau( 138) = (  0.7848198 -0.1925916  1.0040728  )
       139        H      tau( 139) = (  0.7743676  0.5290790  0.0321010  )
       140        C      tau( 140) = (  0.8330831  0.4463540  0.0477223  )
       141        C      tau( 141) = (  0.7880922  0.2845128  0.0464451  )
       142        H      tau( 142) = (  1.3575308  0.3407056  0.0944957  )
       143        H      tau( 143) = (  0.9729054  0.6244468  0.0702099  )
       144        H      tau( 144) = (  1.2370180  0.6335507  0.0792198  )
       145        C      tau( 145) = (  0.9477350  0.5007584  0.0695450  )
       146        C      tau( 146) = (  0.8661126  0.1805205  0.0684437  )
       147        H      tau( 147) = (  0.8328216  0.0581993  0.0684508  )
       148        C      tau( 148) = (  1.0295998  0.3965466  0.0911236  )
       149        C      tau( 149) = (  1.3045000  0.3660939  0.1179700  )
       150        C      tau( 150) = (  0.9840416  0.2346327  0.0896371  )
       151        H      tau( 151) = (  1.3987541  0.4299894  0.1313622  )
       152        C      tau( 152) = (  1.2023491  0.6294440  0.1044731  )
       153        H      tau( 153) = (  1.2839719  0.2556847  0.1305048  )
       154        H      tau( 154) = (  1.0394391  0.1521438  0.1058345  )
       155        C      tau( 155) = (  1.1406855  0.4649483  0.1147660  )
       156        H      tau( 156) = (  1.1110101  0.7211135  0.1090760  )
       157        H      tau( 157) = (  1.3120474  0.6630646  0.1177883  )
       158        C      tau( 158) = (  1.0541959  0.4807565  0.1466534  )
       159        H      tau( 159) = (  0.8323623  0.3578505  0.1322766  )
       160        H      tau( 160) = (  1.2429070  0.6102388  0.1720348  )
       161        C      tau( 161) = (  0.8906889  0.4204681  0.1514788  )
       162        C      tau( 162) = (  1.1206171  0.5631747  0.1736633  )
       163        C      tau( 163) = (  0.8047290  0.4393938  0.1794081  )
       164        C      tau( 164) = (  1.0346061  0.5885508  0.2014119  )
       165        H      tau( 165) = (  0.6833458  0.3907855  0.1814160  )
       166        H      tau( 166) = (  1.0914333  0.6563990  0.2197691  )
       167        C      tau( 167) = (  0.8714778  0.5278186  0.2056352  )
       168        O      tau( 168) = (  0.7697624  0.5604797  0.2290082  )
       169        H      tau( 169) = (  1.0603435  0.6055452  0.2625991  )
       170        C      tau( 170) = (  0.7989584  0.6435698  0.2552930  )
       171        C      tau( 171) = (  0.9531949  0.6665502  0.2709678  )
       172        H      tau( 172) = (  0.5375562  0.6920624  0.2579548  )
       173        C      tau( 173) = (  0.6561514  0.7135764  0.2684674  )
       174        C      tau( 174) = (  0.9707435  0.7632513  0.2973131  )
       175        H      tau( 175) = (  1.0891877  0.7776288  0.3083954  )
       176        C      tau( 176) = (  0.6685412  0.8121254  0.2950658  )
       177        C      tau( 177) = (  0.8318095  0.8430307  0.3098958  )
       178        C      tau( 178) = (  0.5364702  0.9007370  0.3132500  )
       179        O      tau( 179) = (  0.3983141  0.9076596  0.3055586  )
       180        C      tau( 180) = (  0.8100669  0.9562883  0.3369155  )
       181        N      tau( 181) = (  0.6214586  0.9861762  0.3406992  )
       182        O      tau( 182) = (  0.9187167  1.0149834  0.3506969  )
       183        H      tau( 183) = (  0.2879142  1.0366414  0.3521434  )
       184        C      tau( 184) = (  0.5416587  1.0978680  0.3624507  )
       185        C      tau( 185) = (  0.3702152  1.0996536  0.3677079  )
       186        H      tau( 186) = (  0.7634121  1.2038893  0.3775496  )
       187        C      tau( 187) = (  0.6345119  1.1946792  0.3829795  )
       188        C      tau( 188) = (  0.3047863  1.1749088  0.3945124  )
       189        H      tau( 189) = (  0.1750895  1.1662860  0.3991356  )
       190        C      tau( 190) = (  0.5763620  1.2760714  0.4101099  )
       191        C      tau( 191) = (  0.4063685  1.2589681  0.4154938  )
       192        O      tau( 192) = (  0.9583297  1.3007116  0.4130481  )
       193        N      tau( 193) = (  0.6832624  1.3705597  0.4307779  )
       194        H      tau( 194) = (  0.3522611  1.3120066  0.4361749  )
       195        C      tau( 195) = (  0.8711661  1.3775480  0.4288291  )
       196        O      tau( 196) = (  0.5030915  1.4947433  0.4706120  )
       197        C      tau( 197) = (  0.6332714  1.4765084  0.4594555  )
       198        C      tau( 198) = (  0.9322168  1.4938167  0.4531815  )
       199        C      tau( 199) = (  0.7888057  1.5514028  0.4717107  )
       200        H      tau( 200) = (  1.1966944  1.5115086  0.4463346  )
       201        C      tau( 201) = (  1.0923463  1.5505823  0.4599310  )
       202        C      tau( 202) = (  0.8175042  1.6622676  0.4962855  )
       203        H      tau( 203) = (  0.7153872  1.7058654  0.5099638  )
       204        C      tau( 204) = (  1.1123437  1.6590892  0.4847606  )
       205        C      tau( 205) = (  0.9769388  1.7141966  0.5026414  )
       206        H      tau( 206) = (  1.2340759  1.7015093  0.4901214  )
       207        H      tau( 207) = (  1.1216279  1.9917277  0.5740517  )
       208        O      tau( 208) = (  1.0061929  1.8244159  0.5262054  )
       209        C      tau( 209) = (  1.0990819  1.8695433  0.5786169  )
       210        C      tau( 210) = (  1.0521320  1.7666222  0.5531975  )
       211        H      tau( 211) = (  1.1416118  1.8942401  0.6281972  )
       212        H      tau( 212) = (  1.1655685  1.3489973  0.6318899  )
       213        H      tau( 213) = (  1.3391377  1.7493997  0.6528355  )
       214        C      tau( 214) = (  1.1120815  1.8132694  0.6094349  )
       215        C      tau( 215) = (  1.0359348  1.6023537  0.5599185  )
       216        H      tau( 216) = (  1.0063385  1.5224250  0.5410263  )
       217        C      tau( 217) = (  1.2322797  1.4410572  0.6445455  )
       218        C      tau( 218) = (  1.0921365  1.6498716  0.6164169  )
       219        C      tau( 219) = (  1.2326143  1.7141932  0.6671545  )
       220        H      tau( 220) = (  1.3419246  1.4680985  0.6303766  )
       221        C      tau( 221) = (  1.0564675  1.5457692  0.5905145  )
       222        H      tau( 222) = (  1.1638798  1.8206392  0.6731728  )
       223        H      tau( 223) = (  1.2733169  1.3933481  0.6673161  )
       224        H      tau( 224) = (  1.2812867  1.6657425  0.6894063  )
       225        C      tau( 225) = (  1.1225006  1.5935911  0.6489080  )
       226        H      tau( 226) = (  1.0453364  1.4212629  0.5942750  )
       227        C      tau( 227) = (  0.9725148  1.5601761  0.6675483  )
       228        H      tau( 228) = (  0.8587010  1.4132614  0.6318445  )
       229        H      tau( 229) = (  1.0356970  1.6952814  0.7096760  )
       230        C      tau( 230) = (  0.8456135  1.4621742  0.6552204  )
       231        C      tau( 231) = (  0.9446844  1.6214377  0.6987452  )
       232        C      tau( 232) = (  0.7047554  1.4248939  0.6727862  )
       233        C      tau( 233) = (  0.8017295  1.5899976  0.7160500  )
       234        H      tau( 234) = (  0.6147183  1.3451716  0.6631704  )
       235        H      tau( 235) = (  0.7863675  1.6401346  0.7394515  )
       236        C      tau( 236) = (  0.6788478  1.4903842  0.7033515  )
       237        O      tau( 237) = (  0.5351415  1.4579268  0.7185813  )
       238        H      tau( 238) = (  0.8172457  1.3537480  0.7428026  )
       239        C      tau( 239) = (  0.5501388  1.3705255  0.7438604  )
       240        C      tau( 240) = (  0.7083479  1.3259954  0.7560665  )
       241        H      tau( 241) = (  0.2855264  1.3467618  0.7501237  )
       242        C      tau( 242) = (  0.4055531  1.3229911  0.7599659  )
       243        C      tau( 243) = (  0.7277555  1.2485008  0.7847760  )
       244        H      tau( 244) = (  0.8486678  1.2198504  0.7934990  )
       245        C      tau( 245) = (  0.4207262  1.2400238  0.7886490  )
       246        C      tau( 246) = (  0.5862983  1.2027562  0.8022173  )
       247        C      tau( 247) = (  0.2916693  1.1679384  0.8099079  )
       248        O      tau( 248) = (  0.1497574  1.1843097  0.8066573  )
       249        C      tau( 249) = (  0.5715995  1.1068633  0.8320267  )
       250        N      tau( 250) = (  0.3823403  1.0750531  0.8359799  )
       251        O      tau( 251) = (  0.6814198  1.0652578  0.8478507  )
       252        C      tau( 252) = (  0.3008602  0.9809587  0.8603572  )
       253        H      tau( 253) = (  0.5195365  0.9076213  0.8840731  )
       254        H      tau( 254) = (  0.0525105  1.0328483  0.8446695  )
       255        C      tau( 255) = (  0.3876151  0.8941726  0.8835570  )
       256        C      tau( 256) = (  0.1272316  0.9684327  0.8612594  )
       257        C      tau( 257) = (  0.3151981  0.7891038  0.9055032  )
       258        C      tau( 258) = (  0.0478112  0.8746731  0.8838523  )
       259        H      tau( 259) = ( -0.0845209  0.8701125  0.8843980  )
       260        O      tau( 260) = (  0.2038967  0.5425383  0.9569982  )
       261        C      tau( 261) = (  0.1414680  0.7857558  0.9053117  )
       262        N      tau( 262) = (  0.4110668  0.6840970  0.9258090  )
       263        C      tau( 263) = (  0.3412824  0.5665915  0.9506830  )
       264        O      tau( 264) = (  0.7001144  0.7480755  0.9141632  )
       265        C      tau( 265) = (  0.6006338  0.6731393  0.9273244  )
       266        H      tau( 266) = (  0.0773456  0.7125733  0.9219592  )
       267        C      tau( 267) = (  0.4852670  0.4866524  0.9666139  )
       268        C      tau( 268) = (  0.6385711  0.5480932  0.9516278  )
       269        H      tau( 269) = (  0.3866246  0.3344733  1.0030747  )
       270        C      tau( 270) = (  0.4967648  0.3759646  0.9912415  )
       271        C      tau( 271) = (  0.7925917  0.4849076  0.9607662  )
       272        H      tau( 272) = (  0.9037149  0.5248810  0.9494063  )
       273        C      tau( 273) = (  0.6521232  0.3224912  1.0009393  )
       274        C      tau( 274) = (  0.7969881  0.3705068  0.9842737  )
       275        O      tau( 275) = (  0.6688107  0.2368072  1.0274770  )
       276        H      tau( 276) = (  0.9143337  0.3209356  0.9904394  )

     number of k points=    18
                       cart. coord. in units 2pi/alat
        k(    1) = (   0.0000000   0.0000000   0.0000000), wk =   0.1111111
        k(    2) = (   0.0000000   0.0000000   0.0969071), wk =   0.1111111
        k(    3) = (   0.0000000   0.3177612   0.0000000), wk =   0.1111111
        k(    4) = (   0.0000000   0.3177612   0.0969071), wk =   0.1111111
        k(    5) = (   0.0000000   0.6355223   0.0000000), wk =   0.1111111
        k(    6) = (   0.0000000   0.6355223   0.0969071), wk =   0.1111111
        k(    7) = (   0.3333333   0.0000000   0.0000000), wk =   0.1111111
        k(    8) = (   0.3333333   0.0000000   0.0969071), wk =   0.1111111
        k(    9) = (   0.3333333   0.3177612   0.0000000), wk =   0.1111111
        k(   10) = (   0.3333333   0.3177612   0.0969071), wk =   0.1111111
        k(   11) = (   0.3333333   0.6355223   0.0000000), wk =   0.1111111
        k(   12) = (   0.3333333   0.6355223   0.0969071), wk =   0.1111111
        k(   13) = (   0.6666667   0.0000000   0.0000000), wk =   0.1111111
        k(   14) = (   0.6666667   0.0000000   0.0969071), wk =   0.1111111
        k(   15) = (   0.6666667   0.3177612   0.0000000), wk =   0.1111111
        k(   16) = (   0.6666667   0.3177612   0.0969071), wk =   0.1111111
        k(   17) = (   0.6666667   0.6355223   0.0000000), wk =   0.1111111
        k(   18) = (   0.6666667   0.6355223   0.0969071), wk =   0.1111111

                       cryst. coord.
        k(    1) = (   0.0000000   0.0000000   0.0000000), wk =   0.1111111
        k(    2) = (   0.0000000   0.0000000   0.5000000), wk =   0.1111111
        k(    3) = (   0.0000000   0.3333333   0.0000000), wk =   0.1111111
        k(    4) = (   0.0000000   0.3333333   0.5000000), wk =   0.1111111
        k(    5) = (   0.0000000   0.6666667   0.0000000), wk =   0.1111111
        k(    6) = (   0.0000000   0.6666667   0.5000000), wk =   0.1111111
        k(    7) = (   0.3333333   0.0000000   0.0000000), wk =   0.1111111
        k(    8) = (   0.3333333   0.0000000   0.5000000), wk =   0.1111111
        k(    9) = (   0.3333333   0.3333333   0.0000000), wk =   0.1111111
        k(   10) = (   0.3333333   0.3333333   0.5000000), wk =   0.1111111
        k(   11) = (   0.3333333   0.6666667   0.0000000), wk =   0.1111111
        k(   12) = (   0.3333333   0.6666667   0.5000000), wk =   0.1111111
        k(   13) = (   0.6666667   0.0000000   0.0000000), wk =   0.1111111
        k(   14) = (   0.6666667   0.0000000   0.5000000), wk =   0.1111111
        k(   15) = (   0.6666667   0.3333333   0.0000000), wk =   0.1111111
        k(   16) = (   0.6666667   0.3333333   0.5000000), wk =   0.1111111
        k(   17) = (   0.6666667   0.6666667   0.0000000), wk =   0.1111111
        k(   18) = (   0.6666667   0.6666667   0.5000000), wk =   0.1111111

     Dense  grid:   703707 G-vectors     FFT dimensions: (  64,  72, 360)

     Dynamical RAM for                 wfc:       2.61 MB

     Dynamical RAM for     wfc (w. buffer):      49.55 MB

     Dynamical RAM for           str. fact:       0.19 MB

     Dynamical RAM for           local pot:       0.00 MB

     Dynamical RAM for          nlocal pot:      12.20 MB

     Dynamical RAM for                qrad:       2.90 MB

     Dynamical RAM for          rho,v,vnew:       0.36 MB

     Dynamical RAM for               rhoin:       0.12 MB

     Dynamical RAM for            rho*nmix:       0.77 MB

     Dynamical RAM for           G-vectors:       0.20 MB

     Dynamical RAM for          h,s,v(r/c):       2.18 MB

     Dynamical RAM for          <psi|beta>:      13.57 MB

     Dynamical RAM for                 psi:       5.22 MB

     Dynamical RAM for                hpsi:       5.22 MB

     Dynamical RAM for      wfcinit/wfcrot:       9.57 MB

     Estimated static dynamical RAM per process >      66.12 MB

     Estimated max dynamical RAM per process >      93.07 MB

     Estimated total dynamical RAM >      20.36 GB

     Check: negative core charge=   -0.000158

     Initial potential from superposition of free atoms

     starting charge     871.9924, renormalised to     872.0000
     Starting wfcs are  816 randomized atomic wfcs

     total cpu time spent up to now is       44.9 secs

     per-process dynamical memory:   173.4 Mb

     Self-consistent Calculation

     iteration #  1     ecut=    40.00 Ry     beta= 0.50
     Davidson diagonalization with overlap

---- Real-time Memory Report at c_bands before calling an iterative solver
           548 MiB given to the printing process from OS
           331 MiB allocation reported by mallinfo(arena+hblkhd)
        475887 MiB available memory on the node where the printing process lives
------------------
     ethr =  1.00E-02,  avg # of iterations =  2.0
     Davidson diagonalization with overlap

---- Real-time Memory Report at c_bands before calling an iterative solver
           579 MiB given to the printing process from OS
           347 MiB allocation reported by mallinfo(arena+hblkhd)
        474602 MiB available memory on the node where the printing process lives
------------------
     ethr =  1.00E-02,  avg # of iterations =  1.0
     Davidson diagonalization with overlap

---- Real-time Memory Report at c_bands before calling an iterative solver
           579 MiB given to the printing process from OS
           347 MiB allocation reported by mallinfo(arena+hblkhd)
        474610 MiB available memory on the node where the printing process lives
------------------
     ethr =  1.00E-02,  avg # of iterations =  1.0

     Expectation value of exp(iGx):  (4.57191000515477696E-005,-2.82518177154760175E-005)   1.0000000000000000     
     Electronic Dipole per cell (Ry a.u.)  -3.8897891222464378     
     Ionic Dipole per cell (Ry a.u.)   9289.0412334856428     

     Expectation value of exp(iGx):   (3.26485095175817642E-004,1.95440675577811127E-004)   1.0490058639940258     
     Electronic Dipole per cell (Ry a.u.)   3.9764362941980820     
     Ionic Dipole per cell (Ry a.u.)   15512.130366456693     

     Expectation value of exp(iGx):       (-0.57925933404145002,1.06660611626008643E-002)   5.1595821521437895     
     Electronic Dipole per cell (Ry a.u.)   113.24349205907406     
     Ionic Dipole per cell (Ry a.u.)   54330.804674140250     
Electronic Dipole on Cartesian axes
           1  -3.8897891222464378     
           2   3.9764362941980820     
           3   113.24349205907406     
Ionic Dipole on Cartesian axes
           1   9289.0412334856428     
           2   15512.130366456693     
           3   54330.804674140250     

     total cpu time spent up to now is     3626.8 secs

     total energy              =   -2846.82602717 Ry
     estimated scf accuracy    <      24.42953299 Ry

     iteration #  2     ecut=    40.00 Ry     beta= 0.50
     Davidson diagonalization with overlap

---- Real-time Memory Report at c_bands before calling an iterative solver
           590 MiB given to the printing process from OS
           347 MiB allocation reported by mallinfo(arena+hblkhd)
        473913 MiB available memory on the node where the printing process lives
------------------
     ethr =  2.80E-03,  avg # of iterations =  4.0
     Davidson diagonalization with overlap

---- Real-time Memory Report at c_bands before calling an iterative solver
           590 MiB given to the printing process from OS
           347 MiB allocation reported by mallinfo(arena+hblkhd)
        473899 MiB available memory on the node where the printing process lives
------------------
     ethr =  2.80E-03,  avg # of iterations =  1.0
     Davidson diagonalization with overlap

---- Real-time Memory Report at c_bands before calling an iterative solver
           590 MiB given to the printing process from OS
           347 MiB allocation reported by mallinfo(arena+hblkhd)
        473893 MiB available memory on the node where the printing process lives
------------------
     ethr =  2.80E-03,  avg # of iterations =  1.0

     Expectation value of exp(iGx):   (2.12721294383611751E-005,5.00213266560605138E-006)   1.0000000000000000     
     Electronic Dipole per cell (Ry a.u.)   1.6230297186542340     
     Ionic Dipole per cell (Ry a.u.)   9289.0412334856428     

     Expectation value of exp(iGx):   (1.68697477036306901E-004,8.36091716277982959E-005)   1.0490058639940258     
     Electronic Dipole per cell (Ry a.u.)   3.3920637444164021     
     Ionic Dipole per cell (Ry a.u.)   15512.130366456693     

     Expectation value of exp(iGx):      (-0.55405354234537152,-2.70056465892703212E-002)   5.1595821521437895     
     Electronic Dipole per cell (Ry a.u.)  -112.14512647110699     
     Ionic Dipole per cell (Ry a.u.)   54330.804674140250     
Electronic Dipole on Cartesian axes
           1   1.6230297186542340     
           2   3.3920637444164021     
           3  -112.14512647110699     
Ionic Dipole on Cartesian axes
           1   9289.0412334856428     
           2   15512.130366456693     
           3   54330.804674140250     

     total cpu time spent up to now is     7176.5 secs

     total energy              =   -2849.80864853 Ry
     estimated scf accuracy    <       4.27716374 Ry

     iteration #  3     ecut=    40.00 Ry     beta= 0.50
     Davidson diagonalization with overlap

---- Real-time Memory Report at c_bands before calling an iterative solver
           590 MiB given to the printing process from OS
           347 MiB allocation reported by mallinfo(arena+hblkhd)
        473822 MiB available memory on the node where the printing process lives
------------------
     ethr =  4.91E-04,  avg # of iterations =  5.6
     Davidson diagonalization with overlap

---- Real-time Memory Report at c_bands before calling an iterative solver
           590 MiB given to the printing process from OS
           347 MiB allocation reported by mallinfo(arena+hblkhd)
        473902 MiB available memory on the node where the printing process lives
------------------
     ethr =  4.91E-04,  avg # of iterations =  1.0
     Davidson diagonalization with overlap

---- Real-time Memory Report at c_bands before calling an iterative solver
           590 MiB given to the printing process from OS
           347 MiB allocation reported by mallinfo(arena+hblkhd)
        473865 MiB available memory on the node where the printing process lives
------------------
     ethr =  4.91E-04,  avg # of iterations =  1.0

     Expectation value of exp(iGx):  (1.77716741813245397E-005,-1.16404359810066445E-005)   1.0000000000000000     
     Electronic Dipole per cell (Ry a.u.)  -4.0751248416928281     
     Ionic Dipole per cell (Ry a.u.)   9289.0412334856428     

     Expectation value of exp(iGx):   (1.59342368091492054E-004,8.00812492615715421E-005)   1.0490058639940258     
     Electronic Dipole per cell (Ry a.u.)   3.4331252340186507     
     Ionic Dipole per cell (Ry a.u.)   15512.130366456693     

     Expectation value of exp(iGx):      (-0.55147014610224576,-1.36124239169698792E-003)   5.1595821521437895     
     Electronic Dipole per cell (Ry a.u.)  -113.82156272002102     
     Ionic Dipole per cell (Ry a.u.)   54330.804674140250     
Electronic Dipole on Cartesian axes
           1  -4.0751248416928281     
           2   3.4331252340186507     
           3  -113.82156272002102     
Ionic Dipole on Cartesian axes
           1   9289.0412334856428     
           2   15512.130366456693     
           3   54330.804674140250     

     total cpu time spent up to now is    10743.8 secs

     total energy              =   -2850.27729521 Ry
     estimated scf accuracy    <       1.26392429 Ry

     iteration #  4     ecut=    40.00 Ry     beta= 0.50
     Davidson diagonalization with overlap

---- Real-time Memory Report at c_bands before calling an iterative solver
           590 MiB given to the printing process from OS
           347 MiB allocation reported by mallinfo(arena+hblkhd)
        473888 MiB available memory on the node where the printing process lives
------------------
     ethr =  1.45E-04,  avg # of iterations =  6.0
     Davidson diagonalization with overlap

---- Real-time Memory Report at c_bands before calling an iterative solver
           590 MiB given to the printing process from OS
           347 MiB allocation reported by mallinfo(arena+hblkhd)
        473907 MiB available memory on the node where the printing process lives
------------------
     ethr =  1.45E-04,  avg # of iterations =  1.0
     Davidson diagonalization with overlap

---- Real-time Memory Report at c_bands before calling an iterative solver
           590 MiB given to the printing process from OS
           347 MiB allocation reported by mallinfo(arena+hblkhd)
        473758 MiB available memory on the node where the printing process lives
------------------
     ethr =  1.45E-04,  avg # of iterations =  1.0

     Expectation value of exp(iGx):  (2.08869743023208826E-005,-6.40263643176615488E-006)   1.0000000000000000     
     Electronic Dipole per cell (Ry a.u.)  -2.0902870545837611     
     Ionic Dipole per cell (Ry a.u.)   9289.0412334856428     

     Expectation value of exp(iGx):   (1.54298940593658413E-004,8.61194083215687564E-005)   1.0490058639940258     
     Electronic Dipole per cell (Ry a.u.)   3.7527856433808644     
     Ionic Dipole per cell (Ry a.u.)   15512.130366456693     

     Expectation value of exp(iGx):      (-0.55290895538809992,-1.00175985357297218E-002)   5.1595821521437895     
     Electronic Dipole per cell (Ry a.u.)  -113.25419524188769     
     Ionic Dipole per cell (Ry a.u.)   54330.804674140250     
Electronic Dipole on Cartesian axes
           1  -2.0902870545837611     
           2   3.7527856433808644     
           3  -113.25419524188769     
Ionic Dipole on Cartesian axes
           1   9289.0412334856428     
           2   15512.130366456693     
           3   54330.804674140250     

     total cpu time spent up to now is    14265.5 secs

     total energy              =   -2850.47269777 Ry
     estimated scf accuracy    <       0.20667244 Ry

     iteration #  5     ecut=    40.00 Ry     beta= 0.50
     Davidson diagonalization with overlap

---- Real-time Memory Report at c_bands before calling an iterative solver
           590 MiB given to the printing process from OS
           347 MiB allocation reported by mallinfo(arena+hblkhd)
        473859 MiB available memory on the node where the printing process lives
------------------
     ethr =  2.37E-05,  avg # of iterations =  6.0
     Davidson diagonalization with overlap

---- Real-time Memory Report at c_bands before calling an iterative solver
           591 MiB given to the printing process from OS
           347 MiB allocation reported by mallinfo(arena+hblkhd)
        473848 MiB available memory on the node where the printing process lives
------------------
     ethr =  2.37E-05,  avg # of iterations =  1.0
     Davidson diagonalization with overlap

---- Real-time Memory Report at c_bands before calling an iterative solver
           591 MiB given to the printing process from OS
           347 MiB allocation reported by mallinfo(arena+hblkhd)
        473860 MiB available memory on the node where the printing process lives
------------------
     ethr =  2.37E-05,  avg # of iterations =  1.0

     Expectation value of exp(iGx):  (2.03631319107989018E-005,-3.70887834632772741E-006)   1.0000000000000000     
     Electronic Dipole per cell (Ry a.u.)  -1.2660905684156505     
     Ionic Dipole per cell (Ry a.u.)   9289.0412334856428     

     Expectation value of exp(iGx):   (1.54129784048114493E-004,7.66420385880669890E-005)   1.0490058639940258     
     Electronic Dipole per cell (Ry a.u.)   3.4017661507720041     
     Ionic Dipole per cell (Ry a.u.)   15512.130366456693     

     Expectation value of exp(iGx):      (-0.55162677593906451,-1.59860520140097384E-002)   5.1595821521437895     
     Electronic Dipole per cell (Ry a.u.)  -112.86057758931565     
     Ionic Dipole per cell (Ry a.u.)   54330.804674140250     
Electronic Dipole on Cartesian axes
           1  -1.2660905684156505     
           2   3.4017661507720041     
           3  -112.86057758931565     
Ionic Dipole on Cartesian axes
           1   9289.0412334856428     
           2   15512.130366456693     
           3   54330.804674140250     

     total cpu time spent up to now is    17773.6 secs

     total energy              =   -2850.50220201 Ry
     estimated scf accuracy    <       0.03156755 Ry

     iteration #  6     ecut=    40.00 Ry     beta= 0.50
     Davidson diagonalization with overlap

---- Real-time Memory Report at c_bands before calling an iterative solver
           591 MiB given to the printing process from OS
           347 MiB allocation reported by mallinfo(arena+hblkhd)
        473878 MiB available memory on the node where the printing process lives
------------------
     ethr =  3.62E-06,  avg # of iterations =  6.0
     Davidson diagonalization with overlap

---- Real-time Memory Report at c_bands before calling an iterative solver
           591 MiB given to the printing process from OS
           347 MiB allocation reported by mallinfo(arena+hblkhd)
        473876 MiB available memory on the node where the printing process lives
------------------
     ethr =  3.62E-06,  avg # of iterations =  1.0
     Davidson diagonalization with overlap

---- Real-time Memory Report at c_bands before calling an iterative solver
           591 MiB given to the printing process from OS
           347 MiB allocation reported by mallinfo(arena+hblkhd)
        473855 MiB available memory on the node where the printing process lives
------------------
     ethr =  3.62E-06,  avg # of iterations =  1.0

     Expectation value of exp(iGx):  (1.97468503800359673E-005,-5.89052684933111710E-006)   1.0000000000000000     
     Electronic Dipole per cell (Ry a.u.)  -2.0372637490216063     
     Ionic Dipole per cell (Ry a.u.)   9289.0412334856428     

     Expectation value of exp(iGx):   (1.51051854881239584E-004,7.95283307233807983E-005)   1.0490058639940258     
     Electronic Dipole per cell (Ry a.u.)   3.5725680488316840     
     Ionic Dipole per cell (Ry a.u.)   15512.130366456693     

     Expectation value of exp(iGx):      (-0.55136206084061179,-9.35726441575943438E-003)   5.1595821521437895     
     Electronic Dipole per cell (Ry a.u.)  -113.29576464436290     
     Ionic Dipole per cell (Ry a.u.)   54330.804674140250     
Electronic Dipole on Cartesian axes
           1  -2.0372637490216063     
           2   3.5725680488316840     
           3  -113.29576464436290     
Ionic Dipole on Cartesian axes
           1   9289.0412334856428     
           2   15512.130366456693     
           3   54330.804674140250     

     total cpu time spent up to now is    21296.9 secs

     total energy              =   -2850.50753943 Ry
     estimated scf accuracy    <       0.00369896 Ry

     iteration #  7     ecut=    40.00 Ry     beta= 0.50
     Davidson diagonalization with overlap

---- Real-time Memory Report at c_bands before calling an iterative solver
           591 MiB given to the printing process from OS
           347 MiB allocation reported by mallinfo(arena+hblkhd)
        473750 MiB available memory on the node where the printing process lives
------------------
     ethr =  4.24E-07,  avg # of iterations =  6.2
     Davidson diagonalization with overlap

---- Real-time Memory Report at c_bands before calling an iterative solver
           591 MiB given to the printing process from OS
           347 MiB allocation reported by mallinfo(arena+hblkhd)
        473748 MiB available memory on the node where the printing process lives
------------------
     ethr =  4.24E-07,  avg # of iterations =  1.0
     Davidson diagonalization with overlap

---- Real-time Memory Report at c_bands before calling an iterative solver
           591 MiB given to the printing process from OS
           347 MiB allocation reported by mallinfo(arena+hblkhd)
        473806 MiB available memory on the node where the printing process lives
------------------
     ethr =  4.24E-07,  avg # of iterations =  1.0

     Expectation value of exp(iGx):  (1.99494584165607181E-005,-5.38508617157021097E-006)   1.0000000000000000     
     Electronic Dipole per cell (Ry a.u.)  -1.8528214883447969     
     Ionic Dipole per cell (Ry a.u.)   9289.0412334856428     

     Expectation value of exp(iGx):   (1.52323459912786320E-004,7.80710099399447330E-005)   1.0490058639940258     
     Electronic Dipole per cell (Ry a.u.)   3.4915142145758202     
     Ionic Dipole per cell (Ry a.u.)   15512.130366456693     

     Expectation value of exp(iGx):      (-0.55143667396924145,-1.25685859467541267E-002)   5.1595821521437895     
     Electronic Dipole per cell (Ry a.u.)  -113.08477553591948     
     Ionic Dipole per cell (Ry a.u.)   54330.804674140250     
Electronic Dipole on Cartesian axes
           1  -1.8528214883447969     
           2   3.4915142145758202     
           3  -113.08477553591948     
Ionic Dipole on Cartesian axes
           1   9289.0412334856428     
           2   15512.130366456693     
           3   54330.804674140250     

     total cpu time spent up to now is    24844.7 secs

     total energy              =   -2850.50818869 Ry
     estimated scf accuracy    <       0.00093070 Ry

     iteration #  8     ecut=    40.00 Ry     beta= 0.50
     Davidson diagonalization with overlap

---- Real-time Memory Report at c_bands before calling an iterative solver
           591 MiB given to the printing process from OS
           347 MiB allocation reported by mallinfo(arena+hblkhd)
        473803 MiB available memory on the node where the printing process lives
------------------
     ethr =  1.07E-07,  avg # of iterations =  6.6
     Davidson diagonalization with overlap

---- Real-time Memory Report at c_bands before calling an iterative solver
           591 MiB given to the printing process from OS
           347 MiB allocation reported by mallinfo(arena+hblkhd)
        473813 MiB available memory on the node where the printing process lives
------------------
     ethr =  1.07E-07,  avg # of iterations =  1.0
     Davidson diagonalization with overlap

---- Real-time Memory Report at c_bands before calling an iterative solver
           591 MiB given to the printing process from OS
           347 MiB allocation reported by mallinfo(arena+hblkhd)
        473829 MiB available memory on the node where the printing process lives
------------------
     ethr =  1.07E-07,  avg # of iterations =  1.0

     Expectation value of exp(iGx):  (1.99300201949906118E-005,-5.45389556544223114E-006)   1.0000000000000000     
     Electronic Dipole per cell (Ry a.u.)  -1.8771381466868156     
     Ionic Dipole per cell (Ry a.u.)   9289.0412334856428     

     Expectation value of exp(iGx):   (1.51640475791986869E-004,7.95135805516257709E-005)   1.0490058639940258     
     Electronic Dipole per cell (Ry a.u.)   3.5601996386874037     
     Ionic Dipole per cell (Ry a.u.)   15512.130366456693     

     Expectation value of exp(iGx):      (-0.55146641497747007,-1.09473532359035917E-002)   5.1595821521437895     
     Electronic Dipole per cell (Ry a.u.)  -113.19136791757502     
     Ionic Dipole per cell (Ry a.u.)   54330.804674140250     
Electronic Dipole on Cartesian axes
           1  -1.8771381466868156     
           2   3.5601996386874037     
           3  -113.19136791757502     
Ionic Dipole on Cartesian axes
           1   9289.0412334856428     
           2   15512.130366456693     
           3   54330.804674140250     

     total cpu time spent up to now is    28334.8 secs

     total energy              =   -2850.50832624 Ry
     estimated scf accuracy    <       0.00013552 Ry

     iteration #  9     ecut=    40.00 Ry     beta= 0.50
     Davidson diagonalization with overlap

---- Real-time Memory Report at c_bands before calling an iterative solver
           591 MiB given to the printing process from OS
           347 MiB allocation reported by mallinfo(arena+hblkhd)
        473812 MiB available memory on the node where the printing process lives
------------------
     ethr =  1.55E-08,  avg # of iterations =  6.0
     Davidson diagonalization with overlap

---- Real-time Memory Report at c_bands before calling an iterative solver
           591 MiB given to the printing process from OS
           347 MiB allocation reported by mallinfo(arena+hblkhd)
        473740 MiB available memory on the node where the printing process lives
------------------
     ethr =  1.55E-08,  avg # of iterations =  1.0
     Davidson diagonalization with overlap

---- Real-time Memory Report at c_bands before calling an iterative solver
           591 MiB given to the printing process from OS
           347 MiB allocation reported by mallinfo(arena+hblkhd)
        473778 MiB available memory on the node where the printing process lives
------------------
     ethr =  1.55E-08,  avg # of iterations =  1.0

     Expectation value of exp(iGx):  (1.99228103411434537E-005,-5.44754763526823674E-006)   1.0000000000000000     
     Electronic Dipole per cell (Ry a.u.)  -1.8757023770458847     
     Ionic Dipole per cell (Ry a.u.)   9289.0412334856428     

     Expectation value of exp(iGx):   (1.52458749717280590E-004,7.79904944617791694E-005)   1.0490058639940258     
     Electronic Dipole per cell (Ry a.u.)   3.4857733458632030     
     Ionic Dipole per cell (Ry a.u.)   15512.130366456693     

     Expectation value of exp(iGx):      (-0.55146505684968772,-1.15228400754604290E-002)   5.1595821521437895     
     Electronic Dipole per cell (Ry a.u.)  -113.15354338970643     
     Ionic Dipole per cell (Ry a.u.)   54330.804674140250     
Electronic Dipole on Cartesian axes
           1  -1.8757023770458847     
           2   3.4857733458632030     
           3  -113.15354338970643     
Ionic Dipole on Cartesian axes
           1   9289.0412334856428     
           2   15512.130366456693     
           3   54330.804674140250     

     total cpu time spent up to now is    31916.7 secs

     total energy              =   -2850.50835318 Ry
     estimated scf accuracy    <       0.00004129 Ry

     iteration # 10     ecut=    40.00 Ry     beta= 0.50
     Davidson diagonalization with overlap

---- Real-time Memory Report at c_bands before calling an iterative solver
           591 MiB given to the printing process from OS
           347 MiB allocation reported by mallinfo(arena+hblkhd)
        473778 MiB available memory on the node where the printing process lives
------------------
     ethr =  4.73E-09,  avg # of iterations =  6.0
     Davidson diagonalization with overlap

---- Real-time Memory Report at c_bands before calling an iterative solver
           591 MiB given to the printing process from OS
           347 MiB allocation reported by mallinfo(arena+hblkhd)
        473730 MiB available memory on the node where the printing process lives
------------------
     ethr =  4.73E-09,  avg # of iterations =  1.0
     Davidson diagonalization with overlap

---- Real-time Memory Report at c_bands before calling an iterative solver
           591 MiB given to the printing process from OS
           347 MiB allocation reported by mallinfo(arena+hblkhd)
        473791 MiB available memory on the node where the printing process lives
------------------
     ethr =  4.73E-09,  avg # of iterations =  1.0

     Expectation value of exp(iGx):  (1.99258279086184551E-005,-5.45842906956904225E-006)   1.0000000000000000     
     Electronic Dipole per cell (Ry a.u.)  -1.8790019313402473     
     Ionic Dipole per cell (Ry a.u.)   9289.0412334856428     

     Expectation value of exp(iGx):   (1.51856594538542412E-004,7.92611772612296329E-005)   1.0490058639940258     
     Electronic Dipole per cell (Ry a.u.)   3.5462603977724574     
     Ionic Dipole per cell (Ry a.u.)   15512.130366456693     

     Expectation value of exp(iGx):      (-0.55148435922982231,-1.13417443396215904E-002)   5.1595821521437895     
     Electronic Dipole per cell (Ry a.u.)  -113.16547147153389     
     Ionic Dipole per cell (Ry a.u.)   54330.804674140250     
Electronic Dipole on Cartesian axes
           1  -1.8790019313402473     
           2   3.5462603977724574     
           3  -113.16547147153389     
Ionic Dipole on Cartesian axes
           1   9289.0412334856428     
           2   15512.130366456693     
           3   54330.804674140250     

     total cpu time spent up to now is    35427.8 secs

     total energy              =   -2850.50836092 Ry
     estimated scf accuracy    <       0.00000775 Ry

     iteration # 11     ecut=    40.00 Ry     beta= 0.50
     Davidson diagonalization with overlap

---- Real-time Memory Report at c_bands before calling an iterative solver
           592 MiB given to the printing process from OS
           347 MiB allocation reported by mallinfo(arena+hblkhd)
        473797 MiB available memory on the node where the printing process lives
------------------
     ethr =  8.89E-10,  avg # of iterations =  6.0
     Davidson diagonalization with overlap

---- Real-time Memory Report at c_bands before calling an iterative solver
           592 MiB given to the printing process from OS
           347 MiB allocation reported by mallinfo(arena+hblkhd)
        473773 MiB available memory on the node where the printing process lives
------------------
     ethr =  8.89E-10,  avg # of iterations =  1.0
     Davidson diagonalization with overlap

---- Real-time Memory Report at c_bands before calling an iterative solver
           592 MiB given to the printing process from OS
           347 MiB allocation reported by mallinfo(arena+hblkhd)
        473732 MiB available memory on the node where the printing process lives
------------------
     ethr =  8.89E-10,  avg # of iterations =  1.0

     Expectation value of exp(iGx):  (1.99345720658653944E-005,-5.43391359533579949E-006)   1.0000000000000000     
     Electronic Dipole per cell (Ry a.u.)  -1.8701742734232929     
     Ionic Dipole per cell (Ry a.u.)   9289.0412334856428     

     Expectation value of exp(iGx):   (1.52157858641436449E-004,7.86821866888059513E-005)   1.0490058639940258     
     Electronic Dipole per cell (Ry a.u.)   3.5181719091099088     
     Ionic Dipole per cell (Ry a.u.)   15512.130366456693     

     Expectation value of exp(iGx):      (-0.55148287100935833,-1.13544027133413751E-002)   5.1595821521437895     
     Electronic Dipole per cell (Ry a.u.)  -113.16463754676151     
     Ionic Dipole per cell (Ry a.u.)   54330.804674140250     
Electronic Dipole on Cartesian axes
           1  -1.8701742734232929     
           2   3.5181719091099088     
           3  -113.16463754676151     
Ionic Dipole on Cartesian axes
           1   9289.0412334856428     
           2   15512.130366456693     
           3   54330.804674140250     

     total cpu time spent up to now is    38946.1 secs

     total energy              =   -2850.50836184 Ry
     estimated scf accuracy    <       0.00000140 Ry

     iteration # 12     ecut=    40.00 Ry     beta= 0.50
     Davidson diagonalization with overlap

---- Real-time Memory Report at c_bands before calling an iterative solver
           592 MiB given to the printing process from OS
           347 MiB allocation reported by mallinfo(arena+hblkhd)
        473785 MiB available memory on the node where the printing process lives
------------------
     ethr =  1.60E-10,  avg # of iterations =  6.0
[...]
   -16.7612 -16.6816 -16.6722 -16.5892 -16.5589 -16.5330 -16.5130 -16.4178
   -15.6464 -15.6150 -15.5868 -15.5620 -15.5397 -15.5216 -15.4673 -15.4048
   -15.3536 -15.2808 -15.2710 -15.1941 -14.9606 -14.9353 -14.9103 -14.8788
   -14.4490 -14.4334 -14.3518 -14.2630 -14.1929 -14.1739 -14.0886 -14.0629
   -13.5562 -13.5132 -13.3818 -13.3359 -13.3199 -13.2114 -13.1453 -13.1294
   -13.1052 -13.0683 -13.0306 -13.0194 -12.9944 -12.9686 -12.9559 -12.8606
   -12.7091 -12.6976 -12.6704 -12.5917 -12.5530 -12.5376 -12.5241 -12.4835
   -12.2646 -12.2505 -12.1564 -12.1422 -12.0392 -11.9787 -11.9244 -11.8967
   -11.7140 -11.6585 -11.6113 -11.5963 -11.5697 -11.5461 -11.4521 -11.4234
   -10.9726 -10.8539 -10.8445 -10.7849 -10.6520 -10.6295 -10.5630 -10.5407
   -10.5177 -10.4890 -10.4596 -10.4340 -10.3287 -10.2726 -10.2271 -10.0784
   -10.0602 -10.0496 -10.0232  -9.9131  -9.6228  -9.5955  -9.5615  -9.5248
    -9.3499  -9.3239  -9.2589  -9.2485  -9.1550  -9.1350  -9.0814  -9.0560
    -9.0209  -8.9612  -8.9257  -8.9122  -8.7133  -8.6822  -8.6551  -8.6302
    -8.6067  -8.5697  -8.5512  -8.4954  -8.4475  -8.4104  -8.3899  -8.3526
    -8.1494  -8.1426  -8.1097  -8.0806  -7.9128  -7.8904  -7.8256  -7.7731
    -7.7511  -7.7263  -7.7051  -7.6859  -7.6296  -7.6096  -7.5771  -7.5500
    -7.5072  -7.4757  -7.4624  -7.3390  -7.0268  -7.0101  -6.9929  -6.8315
    -6.6654  -6.6475  -6.6043  -6.5282  -6.4852  -6.4693  -6.4420  -6.4258
    -6.3768  -6.3233  -6.2881  -6.2355  -6.1883  -6.1604  -6.1298  -6.0957
    -6.0755  -6.0581  -6.0301  -6.0067  -6.0002  -5.9610  -5.9301  -5.8645
    -5.8409  -5.7899  -5.7637  -5.7397  -5.7254  -5.6759  -5.6260  -5.6156
    -5.5135  -5.4977  -5.4528  -5.4206  -5.4002  -5.3756  -5.3519  -5.3318
    -5.3171  -5.3108  -5.2870  -5.2796  -5.2697  -5.2440  -5.2184  -5.1813
    -5.1574  -5.1491  -5.1323  -5.1045  -5.0821  -5.0678  -5.0335  -5.0070
    -5.0053  -4.9798  -4.9746  -4.9552  -4.9487  -4.9333  -4.9215  -4.9059
    -4.8951  -4.8809  -4.8757  -4.8611  -4.8521  -4.8373  -4.8223  -4.8081
    -4.7905  -4.7800  -4.7681  -4.7261  -4.7216  -4.7110  -4.6791  -4.6625
    -4.6259  -4.6177  -4.6031  -4.5546  -4.5414  -4.5199  -4.4777  -4.4661
    -4.4519  -4.4456  -4.4146  -4.4109  -4.3509  -4.3311  -4.3281  -4.2858
    -4.2795  -4.2711  -4.2439  -4.2264  -4.2026  -4.1727  -4.1584  -4.1508
    -4.1363  -4.1162  -4.0926  -4.0761  -4.0597  -4.0374  -4.0139  -3.9878
    -3.9825  -3.9758  -3.9678  -3.9537  -3.9382  -3.9308  -3.9234  -3.8943
    -3.8761  -3.8418  -3.8176  -3.7931  -3.7847  -3.7384  -3.7152  -3.7030
    -3.6924  -3.6544  -3.6483  -3.6184  -3.5536  -3.5454  -3.5206  -3.4931
    -3.4889  -3.4383  -3.4070  -3.3757  -3.3325  -3.3107  -3.3016  -3.2828
    -3.1389  -3.1063  -3.0740  -3.0607  -3.0465  -3.0075  -2.9880  -2.9501
    -2.9306  -2.9095  -2.8863  -2.8773  -2.8532  -2.8417  -2.8118  -2.8002
    -2.7856  -2.7646  -2.7182  -2.7045  -2.6743  -2.6653  -2.6394  -2.6002
    -2.5801  -2.5045  -2.4699  -2.4535  -2.4234  -2.4048  -2.3816  -2.3707
    -2.3201  -2.3167  -2.2947  -2.2448  -2.2414  -2.2144  -2.2063  -2.1731
    -2.0955  -2.0847  -2.0742  -2.0338  -2.0157  -1.9962  -1.9690  -1.9336
    -1.9010  -1.8883  -1.8601  -1.7856  -1.7690  -1.7452  -1.7087  -1.6605
    -1.6036  -1.5859  -1.5452  -1.5229  -1.5002  -1.4490  -1.4263  -1.4123
    -1.0297  -0.9199  -0.8850  -0.8507  -0.7942  -0.7678  -0.7584  -0.7349
    -0.7136  -0.6945  -0.6840  -0.6693  -0.6610  -0.6387  -0.6265  -0.6001
    -0.5913  -0.5732  -0.5475  -0.5400  -0.5124  -0.4908  -0.4758  -0.4639
    -0.4068  -0.3802  -0.3578  -0.3163  -0.3089  -0.2622  -0.2255  -0.2152
    -0.1902  -0.1414  -0.1186  -0.1109  -0.0858  -0.0751  -0.0668  -0.0476
    -0.0464  -0.0316   0.0050   0.0828   0.3789   0.4483   0.5985   0.6216
     0.6689   0.7087   0.7264   0.7828   0.8056   0.8226   0.8960   0.9163
     1.0721   1.1718   1.2287   1.3921

     occupation numbers 
     1.0000   1.0000   1.0000   1.0000   1.0000   1.0000   1.0000   1.0000
     1.0000   1.0000   1.0000   1.0000   1.0000   1.0000   1.0000   1.0000
     1.0000   1.0000   1.0000   1.0000   1.0000   1.0000   1.0000   1.0000
     1.0000   1.0000   1.0000   1.0000   1.0000   1.0000   1.0000   1.0000
     1.0000   1.0000   1.0000   1.0000   1.0000   1.0000   1.0000   1.0000
     1.0000   1.0000   1.0000   1.0000   1.0000   1.0000   1.0000   1.0000
     1.0000   1.0000   1.0000   1.0000   1.0000   1.0000   1.0000   1.0000
     1.0000   1.0000   1.0000   1.0000   1.0000   1.0000   1.0000   1.0000
     1.0000   1.0000   1.0000   1.0000   1.0000   1.0000   1.0000   1.0000
     1.0000   1.0000   1.0000   1.0000   1.0000   1.0000   1.0000   1.0000
     1.0000   1.0000   1.0000   1.0000   1.0000   1.0000   1.0000   1.0000
     1.0000   1.0000   1.0000   1.0000   1.0000   1.0000   1.0000   1.0000
     1.0000   1.0000   1.0000   1.0000   1.0000   1.0000   1.0000   1.0000
     1.0000   1.0000   1.0000   1.0000   1.0000   1.0000   1.0000   1.0000
     1.0000   1.0000   1.0000   1.0000   1.0000   1.0000   1.0000   1.0000
     1.0000   1.0000   1.0000   1.0000   1.0000   1.0000   1.0000   1.0000
     1.0000   1.0000   1.0000   1.0000   1.0000   1.0000   1.0000   1.0000
     1.0000   1.0000   1.0000   1.0000   1.0000   1.0000   1.0000   1.0000
     1.0000   1.0000   1.0000   1.0000   1.0000   1.0000   1.0000   1.0000
     1.0000   1.0000   1.0000   1.0000   1.0000   1.0000   1.0000   1.0000
     1.0000   1.0000   1.0000   1.0000   1.0000   1.0000   1.0000   1.0000
     1.0000   1.0000   1.0000   1.0000   1.0000   1.0000   1.0000   1.0000
     1.0000   1.0000   1.0000   1.0000   1.0000   1.0000   1.0000   1.0000
     1.0000   1.0000   1.0000   1.0000   1.0000   1.0000   1.0000   1.0000
     1.0000   1.0000   1.0000   1.0000   1.0000   1.0000   1.0000   1.0000
     1.0000   1.0000   1.0000   1.0000   1.0000   1.0000   1.0000   1.0000
     1.0000   1.0000   1.0000   1.0000   1.0000   1.0000   1.0000   1.0000
     1.0000   1.0000   1.0000   1.0000   1.0000   1.0000   1.0000   1.0000
     1.0000   1.0000   1.0000   1.0000   1.0000   1.0000   1.0000   1.0000
     1.0000   1.0000   1.0000   1.0000   1.0000   1.0000   1.0000   1.0000
     1.0000   1.0000   1.0000   1.0000   1.0000   1.0000   1.0000   1.0000
     1.0000   1.0000   1.0000   1.0000   1.0000   1.0000   1.0000   1.0000
     1.0000   1.0000   1.0000   1.0000   1.0000   1.0000   1.0000   1.0000
     1.0000   1.0000   1.0000   1.0000   1.0000   1.0000   1.0000   1.0000
     1.0000   1.0000   1.0000   1.0000   1.0000   1.0000   1.0000   1.0000
     1.0000   1.0000   1.0000   1.0000   1.0000   1.0000   1.0000   1.0000
     1.0000   1.0000   1.0000   1.0000   1.0000   1.0000   1.0000   1.0000
     1.0000   1.0000   1.0000   1.0000   1.0000   1.0000   1.0000   1.0000
     1.0000   1.0000   1.0000   1.0000   1.0000   1.0000   1.0000   1.0000
     1.0000   1.0000   1.0000   1.0000   1.0000   1.0000   1.0000   1.0000
     1.0000   1.0000   1.0000   1.0000   1.0000   1.0000   1.0000   1.0000
     1.0000   1.0000   1.0000   1.0000   1.0000   1.0000   1.0000   1.0000
     1.0000   1.0000   1.0000   1.0000   1.0000   1.0000   1.0000   1.0000
     1.0000   1.0000   1.0000   1.0000   1.0000   1.0000   1.0000   1.0000
     1.0000   1.0000   1.0000   1.0000   1.0000   1.0000   1.0000   1.0000
     1.0000   1.0000   1.0000   1.0000   1.0000   1.0000   1.0000   1.0000
     1.0000   1.0000   1.0000   1.0000   1.0000   1.0000   1.0000   1.0000
     1.0000   1.0000   1.0000   1.0000   1.0000   1.0000   1.0000   1.0000
     1.0000   1.0000   1.0000   1.0000   1.0000   1.0000   1.0000   1.0000
     1.0000   1.0000   1.0000   1.0000   1.0000   1.0000   1.0000   1.0000
     1.0000   1.0000   1.0000   1.0000   1.0000   1.0000   1.0000   1.0000
     1.0000   1.0000   1.0000   1.0000   1.0000   1.0000   1.0000   1.0000
     1.0000   1.0000   1.0000   1.0000   1.0000   1.0000   1.0000   1.0000
     1.0000   1.0000   1.0000   1.0000   1.0000   1.0000   1.0000   1.0000
     1.0000   1.0000   1.0000   1.0000

          k = 0.6667 0.6355 0.0969 ( 87978 PWs)   bands (ev):

   -22.6554 -22.6276 -22.5989 -22.5724 -22.5672 -22.5421 -22.5109 -22.4650
   -21.3896 -21.3764 -21.2579 -21.2237 -21.2034 -21.1902 -21.1522 -21.1265
   -21.1127 -21.0805 -21.0659 -21.0588 -21.0438 -21.0045 -20.9811 -20.9564
   -16.7615 -16.6818 -16.6724 -16.5894 -16.5591 -16.5331 -16.5132 -16.4180
   -15.6465 -15.6150 -15.5871 -15.5650 -15.5370 -15.5186 -15.4720 -15.4053
   -15.3506 -15.2801 -15.2720 -15.1966 -14.9556 -14.9309 -14.9161 -14.8829
   -14.4422 -14.4134 -14.3852 -14.2829 -14.1601 -14.1309 -14.1200 -14.0843
   -13.5264 -13.4986 -13.4600 -13.3568 -13.2450 -13.1895 -13.1737 -13.1329
   -13.1180 -13.0657 -13.0389 -13.0124 -12.9946 -12.9687 -12.9553 -12.8614
   -12.7075 -12.6988 -12.6705 -12.5914 -12.5534 -12.5335 -12.5289 -12.4819
   -12.2565 -12.2355 -12.1895 -12.1576 -12.0164 -11.9594 -11.9283 -11.9076
   -11.7102 -11.6510 -11.6429 -11.6269 -11.5402 -11.5051 -11.4719 -11.4295
   -10.9726 -10.8539 -10.8447 -10.7850 -10.6535 -10.6283 -10.5720 -10.5287
   -10.5190 -10.4914 -10.4569 -10.4387 -10.3296 -10.2730 -10.2280 -10.0778
   -10.0612 -10.0486 -10.0240  -9.9136  -9.6146  -9.5924  -9.5638  -9.5454
    -9.3282  -9.2974  -9.2858  -9.2640  -9.1557  -9.1358  -9.0828  -9.0525
    -9.0205  -8.9610  -8.9214  -8.9156  -8.7131  -8.6742  -8.6588  -8.6375
    -8.6224  -8.5525  -8.5385  -8.5094  -8.4558  -8.3981  -8.3842  -8.3657
    -8.1543  -8.1408  -8.1106  -8.0747  -7.9224  -7.8649  -7.8316  -7.7923
    -7.7664  -7.7235  -7.7018  -7.6734  -7.6225  -7.6083  -7.5807  -7.5536
    -7.5070  -7.4778  -7.4616  -7.3406  -7.0263  -7.0116  -6.9935  -6.8337
    -6.6529  -6.6323  -6.6124  -6.5724  -6.4799  -6.4648  -6.4433  -6.3980
    -6.3669  -6.3373  -6.2943  -6.2516  -6.1766  -6.1641  -6.1202  -6.0997
    -6.0777  -6.0589  -6.0231  -6.0108  -6.0032  -5.9661  -5.9276  -5.8618
    -5.8409  -5.7911  -5.7649  -5.7379  -5.7292  -5.6750  -5.6271  -5.6153
    -5.5149  -5.4974  -5.4526  -5.4180  -5.4064  -5.3712  -5.3483  -5.3396
    -5.3176  -5.3095  -5.2964  -5.2782  -5.2674  -5.2335  -5.2192  -5.1852
    -5.1589  -5.1526  -5.1292  -5.1092  -5.0841  -5.0621  -5.0344  -5.0095
    -5.0041  -4.9822  -4.9713  -4.9566  -4.9490  -4.9392  -4.9194  -4.9042
    -4.8938  -4.8842  -4.8722  -4.8657  -4.8552  -4.8306  -4.8215  -4.8102
    -4.7893  -4.7826  -4.7694  -4.7269  -4.7219  -4.7124  -4.6789  -4.6626
    -4.6263  -4.6181  -4.6035  -4.5545  -4.5418  -4.5206  -4.4787  -4.4673
    -4.4528  -4.4446  -4.4173  -4.4089  -4.3512  -4.3323  -4.3278  -4.2838
    -4.2786  -4.2739  -4.2455  -4.2259  -4.2034  -4.1712  -4.1660  -4.1492
    -4.1297  -4.1206  -4.0942  -4.0718  -4.0606  -4.0365  -4.0202  -3.9888
    -3.9815  -3.9777  -3.9701  -3.9499  -3.9392  -3.9288  -3.9234  -3.8946
    -3.8763  -3.8424  -3.8189  -3.7940  -3.7840  -3.7392  -3.7137  -3.7062
    -3.6910  -3.6572  -3.6466  -3.6192  -3.5544  -3.5453  -3.5212  -3.4946
    -3.4881  -3.4376  -3.4085  -3.3762  -3.3323  -3.3111  -3.3018  -3.2832
    -3.1393  -3.1061  -3.0767  -3.0581  -3.0472  -3.0103  -2.9863  -2.9500
    -2.9331  -2.9107  -2.8860  -2.8717  -2.8611  -2.8333  -2.8177  -2.8015
    -2.7910  -2.7590  -2.7176  -2.6990  -2.6847  -2.6657  -2.6346  -2.6057
    -2.5810  -2.4922  -2.4772  -2.4599  -2.4233  -2.3992  -2.3856  -2.3711
    -2.3223  -2.3156  -2.2923  -2.2537  -2.2367  -2.2143  -2.2073  -2.1725
    -2.0955  -2.0861  -2.0728  -2.0347  -2.0167  -1.9962  -1.9696  -1.9336
    -1.9010  -1.8886  -1.8606  -1.7873  -1.7676  -1.7462  -1.7089  -1.6613
    -1.6038  -1.5862  -1.5465  -1.5226  -1.5007  -1.4497  -1.4268  -1.4122
    -1.0305  -0.9202  -0.8857  -0.8513  -0.7947  -0.7682  -0.7590  -0.7354
    -0.7139  -0.6940  -0.6856  -0.6697  -0.6617  -0.6386  -0.6265  -0.6006
    -0.5921  -0.5738  -0.5489  -0.5375  -0.5158  -0.4903  -0.4771  -0.4636
    -0.4075  -0.3807  -0.3575  -0.3175  -0.3086  -0.2625  -0.2258  -0.2158
    -0.1908  -0.1414  -0.1195  -0.1111  -0.0881  -0.0754  -0.0676  -0.0490
    -0.0470  -0.0321   0.0039   0.0825   0.3788   0.4477   0.6002   0.6182
     0.6711   0.7063   0.7274   0.7840   0.8015   0.8243   0.8962   0.9156
     1.0716   1.1718   1.2283   1.3917

     occupation numbers 
     1.0000   1.0000   1.0000   1.0000   1.0000   1.0000   1.0000   1.0000
     1.0000   1.0000   1.0000   1.0000   1.0000   1.0000   1.0000   1.0000
     1.0000   1.0000   1.0000   1.0000   1.0000   1.0000   1.0000   1.0000
     1.0000   1.0000   1.0000   1.0000   1.0000   1.0000   1.0000   1.0000
     1.0000   1.0000   1.0000   1.0000   1.0000   1.0000   1.0000   1.0000
     1.0000   1.0000   1.0000   1.0000   1.0000   1.0000   1.0000   1.0000
     1.0000   1.0000   1.0000   1.0000   1.0000   1.0000   1.0000   1.0000
     1.0000   1.0000   1.0000   1.0000   1.0000   1.0000   1.0000   1.0000
     1.0000   1.0000   1.0000   1.0000   1.0000   1.0000   1.0000   1.0000
     1.0000   1.0000   1.0000   1.0000   1.0000   1.0000   1.0000   1.0000
     1.0000   1.0000   1.0000   1.0000   1.0000   1.0000   1.0000   1.0000
     1.0000   1.0000   1.0000   1.0000   1.0000   1.0000   1.0000   1.0000
     1.0000   1.0000   1.0000   1.0000   1.0000   1.0000   1.0000   1.0000
     1.0000   1.0000   1.0000   1.0000   1.0000   1.0000   1.0000   1.0000
     1.0000   1.0000   1.0000   1.0000   1.0000   1.0000   1.0000   1.0000
     1.0000   1.0000   1.0000   1.0000   1.0000   1.0000   1.0000   1.0000
     1.0000   1.0000   1.0000   1.0000   1.0000   1.0000   1.0000   1.0000
     1.0000   1.0000   1.0000   1.0000   1.0000   1.0000   1.0000   1.0000
     1.0000   1.0000   1.0000   1.0000   1.0000   1.0000   1.0000   1.0000
     1.0000   1.0000   1.0000   1.0000   1.0000   1.0000   1.0000   1.0000
     1.0000   1.0000   1.0000   1.0000   1.0000   1.0000   1.0000   1.0000
     1.0000   1.0000   1.0000   1.0000   1.0000   1.0000   1.0000   1.0000
     1.0000   1.0000   1.0000   1.0000   1.0000   1.0000   1.0000   1.0000
     1.0000   1.0000   1.0000   1.0000   1.0000   1.0000   1.0000   1.0000
     1.0000   1.0000   1.0000   1.0000   1.0000   1.0000   1.0000   1.0000
     1.0000   1.0000   1.0000   1.0000   1.0000   1.0000   1.0000   1.0000
     1.0000   1.0000   1.0000   1.0000   1.0000   1.0000   1.0000   1.0000
     1.0000   1.0000   1.0000   1.0000   1.0000   1.0000   1.0000   1.0000
     1.0000   1.0000   1.0000   1.0000   1.0000   1.0000   1.0000   1.0000
     1.0000   1.0000   1.0000   1.0000   1.0000   1.0000   1.0000   1.0000
     1.0000   1.0000   1.0000   1.0000   1.0000   1.0000   1.0000   1.0000
     1.0000   1.0000   1.0000   1.0000   1.0000   1.0000   1.0000   1.0000
     1.0000   1.0000   1.0000   1.0000   1.0000   1.0000   1.0000   1.0000
     1.0000   1.0000   1.0000   1.0000   1.0000   1.0000   1.0000   1.0000
     1.0000   1.0000   1.0000   1.0000   1.0000   1.0000   1.0000   1.0000
     1.0000   1.0000   1.0000   1.0000   1.0000   1.0000   1.0000   1.0000
     1.0000   1.0000   1.0000   1.0000   1.0000   1.0000   1.0000   1.0000
     1.0000   1.0000   1.0000   1.0000   1.0000   1.0000   1.0000   1.0000
     1.0000   1.0000   1.0000   1.0000   1.0000   1.0000   1.0000   1.0000
     1.0000   1.0000   1.0000   1.0000   1.0000   1.0000   1.0000   1.0000
     1.0000   1.0000   1.0000   1.0000   1.0000   1.0000   1.0000   1.0000
     1.0000   1.0000   1.0000   1.0000   1.0000   1.0000   1.0000   1.0000
     1.0000   1.0000   1.0000   1.0000   1.0000   1.0000   1.0000   1.0000
     1.0000   1.0000   1.0000   1.0000   1.0000   1.0000   1.0000   1.0000
     1.0000   1.0000   1.0000   1.0000   1.0000   1.0000   1.0000   1.0000
     1.0000   1.0000   1.0000   1.0000   1.0000   1.0000   1.0000   1.0000
     1.0000   1.0000   1.0000   1.0000   1.0000   1.0000   1.0000   1.0000
     1.0000   1.0000   1.0000   1.0000   1.0000   1.0000   1.0000   1.0000
     1.0000   1.0000   1.0000   1.0000   1.0000   1.0000   1.0000   1.0000
     1.0000   1.0000   1.0000   1.0000   1.0000   1.0000   1.0000   1.0000
     1.0000   1.0000   1.0000   1.0000   1.0000   1.0000   1.0000   1.0000
     1.0000   1.0000   1.0000   1.0000   1.0000   1.0000   1.0000   1.0000
     1.0000   1.0000   1.0000   1.0000   1.0000   1.0000   1.0000   1.0000
     1.0000   1.0000   1.0000   1.0000   1.0000   1.0000   1.0000   1.0000
     1.0000   1.0000   1.0000   1.0000

     highest occupied level (ev):     1.4690

!    total energy              =   -2850.50836184 Ry
     estimated scf accuracy    <       0.00000040 Ry

     The total energy is the sum of the following terms:
     one-electron contribution =   -3118.64989622 Ry
     hartree contribution      =    1860.13584418 Ry
     xc contribution           =    -937.83518793 Ry
     ewald contribution        =    -644.87195474 Ry

     convergence has been achieved in  12 iterations

     Writing all to output data dir ./tmp/PEI.save/ :
     XML data file, charge density, pseudopotentials, collected wavefunctions

     init_run     :     34.10s CPU     44.54s WALL (       1 calls)
     electrons    :  36302.68s CPU  42502.37s WALL (       1 calls)

     Called by init_run:
     wfcinit      :     32.65s CPU     42.99s WALL (       1 calls)
     wfcinit:atom :      0.06s CPU      0.08s WALL (      18 calls)
     wfcinit:wfcr :     31.95s CPU     41.79s WALL (      18 calls)
     potinit      :      0.01s CPU      0.02s WALL (       1 calls)
     hinit0       :      0.92s CPU      0.96s WALL (       1 calls)

     Called by electrons:
     c_bands      :  15262.67s CPU  21427.21s WALL (      36 calls)
     sum_band     :     22.52s CPU     51.14s WALL (      12 calls)
     v_of_rho     :      0.11s CPU      0.15s WALL (      13 calls)
     v_h          :      0.01s CPU      0.02s WALL (      13 calls)
     v_xc         :      0.09s CPU      0.13s WALL (      13 calls)
     mix_rho      :      0.03s CPU      0.05s WALL (      12 calls)

     Called by c_bands:
     init_us_2    :     15.54s CPU     15.55s WALL (     882 calls)
     cegterg      :  15228.90s CPU  21388.55s WALL (     648 calls)

     Called by sum_band:
     sum_band:wei :      0.00s CPU      0.00s WALL (      12 calls)
     sum_band:loo :     22.50s CPU     51.11s WALL (      12 calls)
     sum_band:buf :      0.53s CPU      0.54s WALL (     216 calls)
     sum_band:ini :      3.48s CPU      3.48s WALL (     216 calls)

     Called by *egterg:
     cdiaghg      :   1085.97s CPU   1149.01s WALL (    2240 calls)
     cegterg:over :     95.03s CPU     96.41s WALL (    1628 calls)
     cegterg:upda :     48.09s CPU     48.43s WALL (    1628 calls)
     cegterg:last :     58.07s CPU     58.35s WALL (     864 calls)
     cdiaghg:chol :     24.27s CPU     24.55s WALL (    2240 calls)
     cdiaghg:inve :      5.39s CPU      5.74s WALL (    2240 calls)
     cdiaghg:para :     77.03s CPU     77.13s WALL (    4480 calls)
     h_psi        :  13937.32s CPU  20040.53s WALL (    2294 calls)
     g_psi        :      0.53s CPU      0.62s WALL (    1628 calls)

     Called by h_psi:
     h_psi:calbec :    305.33s CPU    305.36s WALL (    2294 calls)
     vloc_psi     :    256.94s CPU    640.27s WALL (    2294 calls)
     add_vuspsi   :    173.84s CPU    174.06s WALL (    2294 calls)

     General routines
     calbec       :    305.31s CPU    305.34s WALL (    2294 calls)
     fft          :      0.98s CPU      1.06s WALL (     130 calls)
     ffts         :      0.01s CPU      0.01s WALL (      12 calls)
     fftw         :    264.03s CPU    673.73s WALL ( 1384256 calls)

     Parallel routines

     Electric-field routines
     h_epsi_set   :  17209.69s CPU  17215.02s WALL (      36 calls)
     h_epsi_apply :  13198.62s CPU  18918.17s WALL (    2276 calls)
     c_phase_fiel :   3807.59s CPU   3808.03s WALL (      36 calls)

     PWSCF        :     10h 6m CPU     11h50m WALL


   This run was terminated on:   5:49:53  30Oct2024            

=------------------------------------------------------------------------------=
   JOB DONE.
=------------------------------------------------------------------------------=
