
     Program PWSCF v.7.4 starts on 29Oct2024 at 14:59:45 
        Git branch: develop
        Last git commit: 6e083f7950e599a1a6788f0638610f88c1613670
        Last git commit date: Mon Oct 21 09:56:42 2024 +0000
        Last git commit subject: Merge branch 'features/magnetic_symmetry_method2' 

     This program is part of the open-source Quantum ESPRESSO suite
     for quantum simulation of materials; please cite
         "P. Giannozzi et al., J. Phys.:Condens. Matter 21 395502 (2009);
         "P. Giannozzi et al., J. Phys.:Condens. Matter 29 465901 (2017);
         "P. Giannozzi et al., J. Chem. Phys. 152 154105 (2020);
          URL http://www.quantum-espresso.org", 
     in publications or presentations arising from this work. More details at
     http://www.quantum-espresso.org/quote

     Parallel version (MPI), running on   224 processors

     MPI processes distributed on     4 nodes
     491211 MiB available memory on the printing compute node when the environment starts

     Waiting for input...
     Reading input from standard input

     Current dimensions of program PWSCF are:
     Max number of different atomic species (ntypx) = 10
     Max number of k-points (npk) =  40000
     Max angular momentum in pseudopotentials (lmaxx) =  4

     R & G space division:  proc/nbgrp/npool/nimage =     224
     Subspace diagonalization in iterative solution of the eigenvalue problem:
     one sub-group per band group will be used
     custom distributed-memory algorithm (size of sub-group:  4*  4 procs)


     Parallelization info
     --------------------
     sticks:   dense  smooth     PW     G-vecs:    dense   smooth      PW
     Min          14      14      4                 3120     3120     444
     Max          15      15      5                 3167     3167     476
     Sum        3247    3247    911               703707   703707  104481

     Using Slab Decomposition



     bravais-lattice index     =            0
     lattice parameter (alat)  =      15.6112  a.u.
     unit-cell volume          =   20592.1448 (a.u.)^3
     number of atoms/cell      =          276
     number of atomic types    =            4
     number of electrons       =       872.00
     number of Kohn-Sham states=          436
     kinetic-energy cutoff     =      40.0000  Ry
     charge density cutoff     =     160.0000  Ry
     scf convergence threshold =      1.0E-06
     mixing beta               =       0.5000
     number of iterations used =            8  plain     mixing
     Exchange-correlation= PBE
                           (   1   4   3   4   0   0   0)

     Using Berry phase electric field
     In a.u.(Ry)  cartesian system of reference
        0.0000000000
        0.0000000000
        0.0000000000
     In a.u.(Ry)  crystal system of reference
        0.0000000000
        0.0000000000
        0.0000000000
     Number of iterative cycles:   1


     celldm(1)=  15.611203  celldm(2)=   0.000000  celldm(3)=   0.000000
     celldm(4)=   0.000000  celldm(5)=   0.000000  celldm(6)=   0.000000

     crystal axes: (cart. coord. in units of alat)
               a(1) = (   1.000000   0.000000   0.000000 )  
               a(2) = (   0.000000   1.049006   0.000000 )  
               a(3) = (   0.000000   0.000000   5.159582 )  

     reciprocal axes: (cart. coord. in units 2 pi/alat)
               b(1) = (  1.000000  0.000000  0.000000 )  
               b(2) = (  0.000000  0.953284  0.000000 )  
               b(3) = (  0.000000  0.000000  0.193814 )  


     PseudoPot. # 1 for C  read from file:
     ./C_ONCV_PBE_sr.upf
     MD5 check sum: be7deea5c8a9eeec940f0cd39a542f08
     Pseudo is Norm-conserving + core correction, Zval =  4.0
     Generated using ONCVPSP code by D. R. Hamann
     Using radial grid of 1248 points,  4 beta functions with: 
                l(1) =   0
                l(2) =   0
                l(3) =   1
                l(4) =   1

     PseudoPot. # 2 for N  read from file:
     ./N_ONCV_PBE_sr.upf
     MD5 check sum: 18c6af81dac9c5a2d6d52ed11cf7bfee
     Pseudo is Norm-conserving + core correction, Zval =  5.0
     Generated using ONCVPSP code by D. R. Hamann
     Using radial grid of 1058 points,  4 beta functions with: 
                l(1) =   0
                l(2) =   0
                l(3) =   1
                l(4) =   1

     PseudoPot. # 3 for H  read from file:
     ./H_ONCV_PBE_sr.upf
     MD5 check sum: 31ee981bebb029a36324f200b357dac4
     Pseudo is Norm-conserving, Zval =  1.0
     Generated using ONCVPSP code by D. R. Hamann
     Using radial grid of 1166 points,  3 beta functions with: 
                l(1) =   0
                l(2) =   0
                l(3) =   1

     PseudoPot. # 4 for O  read from file:
     ./O_ONCV_PBE_sr.upf
     MD5 check sum: b0122293cc47a814ad0627188f9a6d95
     Pseudo is Norm-conserving + core correction, Zval =  6.0
     Generated using ONCVPSP code by D. R. Hamann
     Using radial grid of  936 points,  5 beta functions with: 
                l(1) =   0
                l(2) =   0
                l(3) =   1
                l(4) =   1
                l(5) =   2

     atomic species   valence    mass     pseudopotential
     C                 4.00    12.01070     C ( 1.00)
     N                 5.00    14.00670     N ( 1.00)
     H                 1.00     1.00794     H ( 1.00)
     O                 6.00    15.99900     O ( 1.00)

     No symmetry found


                                    s                        frac. trans.

      isym =  1     identity                                     

 cryst.   s( 1) = (     1          0          0      )
                  (     0          1          0      )
                  (     0          0          1      )

 cart.    s( 1) = (  1.0000000  0.0000000  0.0000000 )
                  (  0.0000000  1.0000000  0.0000000 )
                  (  0.0000000  0.0000000  1.0000000 )


   Cartesian axes

     site n.     atom                  positions (alat units)
         1        H      tau(   1) = (   0.4764639   0.0061428   0.2827054  )
         2        C      tau(   2) = (   0.5032714  -0.0806930   0.3784653  )
         3        C      tau(   3) = (   0.5320111  -0.2497535   0.3376288  )
         4        H      tau(   4) = (   0.6840542  -0.1571422   1.0700925  )
         5        H      tau(   5) = (   0.4916543   0.1019978   0.5647667  )
         6        H      tau(   6) = (   0.7316891   0.1086382   0.9643389  )
         7        C      tau(   7) = (   0.5114709  -0.0261464   0.5392857  )
         8        C      tau(   8) = (   0.5667493  -0.3614609   0.4701415  )
         9        H      tau(   9) = (   0.5880241  -0.4895327   0.4439420  )
        10        C      tau(  10) = (   0.5487308  -0.1363195   0.6718587  )
        11        C      tau(  11) = (   0.6484171  -0.2061412   0.9500438  )
        12        C      tau(  12) = (   0.5743127  -0.3060035   0.6303065  )
        13        H      tau(  13) = (   0.5656351  -0.3101495   0.9709939  )
        14        C      tau(  14) = (   0.6942816   0.0768674   0.8390109  )
        15        H      tau(  15) = (   0.7601200  -0.2542188   0.8918862  )
        16        H      tau(  16) = (   0.6007761  -0.3942959   0.7250587  )
        17        C      tau(  17) = (   0.5657802  -0.0694510   0.8387084  )
        18        H      tau(  18) = (   0.8063115   0.0444906   0.7721418  )
        19        H      tau(  19) = (   0.6426249   0.1872175   0.7825212  )
        20        C      tau(  20) = (   0.4119693  -0.0112222   0.9148263  )
        21        H      tau(  21) = (   0.2550744  -0.1833761   0.7865607  )
        22        H      tau(  22) = (   0.5142097   0.1889113   1.0607790  )
        23        C      tau(  23) = (   0.2583581  -0.0889451   0.8783168  )
        24        C      tau(  24) = (   0.4048010   0.1211484   1.0309282  )
        25        C      tau(  25) = (   0.1148806  -0.0501879   0.9622148  )
        26        C      tau(  26) = (   0.2599146   0.1674379   1.1078287  )
        27        H      tau(  27) = (   0.0047821  -0.1189387   0.9370500  )
        28        H      tau(  28) = (   0.2607729   0.2713082   1.1898170  )
        29        C      tau(  29) = (   0.1118181   0.0762190   1.0839976  )
        30        O      tau(  30) = (  -0.0254995   0.0997563   1.1687026  )
        31        H      tau(  31) = (   0.2305001   0.1077432   1.3886493  )
        32        C      tau(  32) = (  -0.0232197   0.1586928   1.3204644  )
        33        C      tau(  33) = (   0.1213475   0.1751941   1.4200892  )
        34        H      tau(  34) = (  -0.2857132   0.2008411   1.3152773  )
        35        C      tau(  35) = (  -0.1729079   0.2247153   1.3798902  )
        36        C      tau(  36) = (   0.1276263   0.2776363   1.5557392  )
        37        H      tau(  37) = (   0.2405844   0.2920017   1.6231750  )
        38        C      tau(  38) = (  -0.1731658   0.3238098   1.5214752  )
        39        C      tau(  39) = (  -0.0163604   0.3607989   1.6087713  )
        40        C      tau(  40) = (  -0.3115053   0.4078339   1.6131793  )
        41        O      tau(  41) = (  -0.4490307   0.4031626   1.5724537  )
        42        C      tau(  42) = (  -0.0478352   0.4746267   1.7509171  )
        43        N      tau(  43) = (  -0.2355136   0.5017296   1.7608240  )
        44        O      tau(  44) = (   0.0541684   0.5318437   1.8347726  )
        45        H      tau(  45) = (  -0.5642094   0.5076777   1.8111272  )
        46        C      tau(  46) = (  -0.3259360   0.5995912   1.8822120  )
        47        C      tau(  47) = (  -0.4993948   0.5904953   1.8904281  )
        48        H      tau(  48) = (  -0.1211360   0.7231489   1.9915347  )
        49        C      tau(  49) = (  -0.2530163   0.7106704   1.9941049  )
        50        C      tau(  50) = (  -0.5918344   0.6870095   1.9992911  )
        51        H      tau(  51) = (  -0.7243999   0.6787076   2.0004882  )
        52        C      tau(  52) = (  -0.3379853   0.8114691   2.1070818  )
        53        C      tau(  53) = (  -0.5117055   0.7947580   2.1064429  )
        54        O      tau(  54) = (  -0.4954642   1.0156779   2.3827731  )
        55        N      tau(  55) = (  -0.2599230   0.9293751   2.2176598  )
        56        H      tau(  56) = (  -0.5864137   0.8668774   2.1878880  )
        57        C      tau(  57) = (  -0.3544773   1.0188726   2.3537279  )
        58        O      tau(  58) = (   0.0409654   0.9127920   2.1760299  )
        59        C      tau(  59) = (  -0.0715489   0.9653212   2.2473351  )
        60        C      tau(  60) = (  -0.2303158   1.1102560   2.4567069  )
        61        C      tau(  61) = (  -0.0613656   1.0795863   2.3924999  )
        62        H      tau(  62) = (  -0.3825649   1.2352004   2.6368404  )
        63        C      tau(  63) = (  -0.2591007   1.2136635   2.5938612  )
        64        C      tau(  64) = (   0.0695673   1.1611529   2.4718791  )
        65        H      tau(  65) = (   0.1931190   1.1482620   2.4262685  )
        66        C      tau(  66) = (  -0.1245654   1.2856394   2.6707959  )
        67        C      tau(  67) = (   0.0380013   1.2606799   2.6093281  )
        68        H      tau(  68) = (  -0.1452495   1.3620465   2.7766764  )
        69        H      tau(  69) = (   0.2770889   1.0369710   2.6531361  )
        70        O      tau(  70) = (   0.1546425   1.3529662   2.6827540  )
        71        C      tau(  71) = (   0.3294743   1.1172272   2.7437020  )
        72        C      tau(  72) = (   0.2839083   1.2875071   2.7517134  )
        73        H      tau(  73) = (   0.4620044   0.9233482   2.8502026  )
        74        H      tau(  74) = (   0.5642083   0.8045700   3.0474273  )
        75        H      tau(  75) = (   0.8772706   1.1006304   3.2056877  )
        76        C      tau(  76) = (   0.4374634   1.0530291   2.8568496  )
        77        C      tau(  77) = (   0.3680287   1.3897170   2.8693836  )
        78        H      tau(  78) = (   0.3393126   1.5188701   2.8746743  )
        79        C      tau(  79) = (   0.6715554   0.8857306   3.0459388  )
        80        C      tau(  80) = (   0.5170526   1.1499130   2.9817539  )
        81        C      tau(  81) = (   0.7974476   1.1530704   3.1106979  )
        82        H      tau(  82) = (   0.7228264   0.8871319   2.9213468  )
        83        C      tau(  83) = (   0.4784816   1.3225967   2.9782575  )
        84        H      tau(  84) = (   0.8619833   1.1411961   2.9932232  )
        85        H      tau(  85) = (   0.7646497   0.8276576   3.1239285  )
        86        H      tau(  86) = (   0.7844342   1.2838442   3.1361589  )
        87        C      tau(  87) = (   0.6280048   1.0659277   3.1056068  )
        88        H      tau(  88) = (   0.5355467   1.4039096   3.0658427  )
        89        C      tau(  89) = (   0.5565249   1.0619066   3.2710183  )
        90        H      tau(  90) = (   0.7505448   0.9126570   3.3792721  )
        91        H      tau(  91) = (   0.3382717   1.2064821   3.2163769  )
        92        C      tau(  92) = (   0.6360276   0.9750241   3.4022620  )
        93        C      tau(  93) = (   0.4046800   1.1418150   3.3111144  )
        94        C      tau(  94) = (   0.5688506   0.9650673   3.5583175  )
        95        C      tau(  95) = (   0.3411741   1.1390300   3.4689080  )
        96        H      tau(  96) = (   0.6305454   0.8928060   3.6495502  )
        97        H      tau(  97) = (   0.2276817   1.2022128   3.4939943  )
        98        C      tau(  98) = (   0.4195791   1.0489329   3.5988973  )
        99        O      tau(  99) = (   0.3443099   1.0398973   3.7400897  )
       100        H      tau( 100) = (   0.6470109   0.9877166   3.8837877  )
       101        C      tau( 101) = (   0.3876655   0.9380872   3.8643982  )
       102        C      tau( 102) = (   0.5466223   0.9175664   3.9336480  )
       103        H      tau( 103) = (   0.1336196   0.8689060   3.8937720  )
       104        C      tau( 104) = (   0.2568027   0.8548147   3.9401553  )
       105        C      tau( 105) = (   0.5812044   0.8120352   4.0648756  )
       106        H      tau( 106) = (   0.7056869   0.7988018   4.1082927  )
       107        C      tau( 107) = (   0.2847082   0.7569030   4.0814554  )
       108        C      tau( 108) = (   0.4530575   0.7270763   4.1459087  )
       109        C      tau( 109) = (   0.1620227   0.6723804   4.1920396  )
       110        O      tau( 110) = (   0.0200302   0.6747702   4.1682079  )
       111        C      tau( 111) = (   0.4431573   0.6159749   4.2942204  )
       112        N      tau( 112) = (   0.2592124   0.5866319   4.3304235  )
       113        O      tau( 113) = (   0.5556763   0.5638479   4.3672521  )
       114        C      tau( 114) = (   0.1860320   0.4864147   4.4623655  )
       115        H      tau( 115) = (   0.4005287   0.3551647   4.5330051  )
       116        H      tau( 116) = (  -0.0571933   0.5900735   4.4305044  )
       117        C      tau( 117) = (   0.2719289   0.3722106   4.5606945  )
       118        C      tau( 118) = (   0.0169214   0.5031622   4.4975943  )
       119        C      tau( 119) = (   0.2065028   0.2785043   4.6916810  )
       120        C      tau( 120) = (  -0.0585751   0.4081560   4.6198357  )
       121        H      tau( 121) = (  -0.1885534   0.4215052   4.6428738  )
       122        O      tau( 122) = (   0.0924898   0.0564859   4.9867750  )
       123        C      tau( 123) = (   0.0353651   0.2974467   4.7128926  )
       124        N      tau( 124) = (   0.3018296   0.1777520   4.8070070  )
       125        C      tau( 125) = (   0.2303642   0.0737382   4.9500078  )
       126        O      tau( 126) = (   0.5911397   0.2136796   4.7322123  )
       127        C      tau( 127) = (   0.4899566   0.1543473   4.8152353  )
       128        H      tau( 128) = (  -0.0273747   0.2282539   4.8059498  )
       129        C      tau( 129) = (   0.3699368  -0.0102969   5.0374444  )
       130        C      tau( 130) = (   0.5257532   0.0372153   4.9550884  )
       131        H      tau( 131) = (   0.2628773  -0.1525336   5.2362847  )
       132        C      tau( 132) = (   0.3748943  -0.1200859   5.1734905  )
       133        C      tau( 133) = (   0.6747819  -0.0318982   5.0129817  )
       134        H      tau( 134) = (   0.7895328   0.0008371   4.9557826  )
       135        C      tau( 135) = (   0.5235547  -0.1886570   5.2235943  )
       136        C      tau( 136) = (   0.6711171  -0.1461378   5.1420302  )
       137        O      tau( 137) = (   0.5298334  -0.3045817   5.3482554  )
       138        H      tau( 138) = (   0.7848198  -0.2020297   5.1805963  )
       139        H      tau( 139) = (   0.7743676   0.5550069   0.1656280  )
       140        C      tau( 140) = (   0.8330831   0.4682280   0.2462271  )
       141        C      tau( 141) = (   0.7880922   0.2984555   0.2396373  )
       142        H      tau( 142) = (   1.3575308   0.3574022   0.4875585  )
       143        H      tau( 143) = (   0.9729054   0.6550483   0.3622540  )
       144        H      tau( 144) = (   1.2370180   0.6645984   0.4087408  )
       145        C      tau( 145) = (   0.9477350   0.5252985   0.3588231  )
       146        C      tau( 146) = (   0.8661126   0.1893671   0.3531410  )
       147        H      tau( 147) = (   0.8328216   0.0610514   0.3531777  )
       148        C      tau( 148) = (   1.0295998   0.4159797   0.4701596  )
       149        C      tau( 149) = (   1.3045000   0.3840347   0.6086759  )
       150        C      tau( 150) = (   0.9840416   0.2461311   0.4624898  )
       151        H      tau( 151) = (   1.3987541   0.4510614   0.6777742  )
       152        C      tau( 152) = (   1.2023491   0.6602905   0.5390378  )
       153        H      tau( 153) = (   1.2839719   0.2682148   0.6733505  )
       154        H      tau( 154) = (   1.0394391   0.1595997   0.5460616  )
       155        C      tau( 155) = (   1.1406855   0.4877335   0.5921444  )
       156        H      tau( 156) = (   1.1110101   0.7564523   0.5627865  )
       157        H      tau( 157) = (   1.3120474   0.6955587   0.6077383  )
       158        C      tau( 158) = (   1.0541959   0.5043164   0.7566705  )
       159        H      tau( 159) = (   0.8323623   0.3753873   0.6824918  )
       160        H      tau( 160) = (   1.2429070   0.6401441   0.8876278  )
       161        C      tau( 161) = (   0.8906889   0.4410735   0.7815675  )
       162        C      tau( 162) = (   1.1206171   0.5907735   0.8960299  )
       163        C      tau( 163) = (   0.8047290   0.4609267   0.9256709  )
       164        C      tau( 164) = (   1.0346061   0.6173932   1.0392015  )
       165        H      tau( 165) = (   0.6833458   0.4099363   0.9360309  )
       166        H      tau( 166) = (   1.0914333   0.6885664   1.1339168  )
       167        C      tau( 167) = (   0.8714778   0.5536848   1.0609917  )
       168        O      tau( 168) = (   0.7697624   0.5879465   1.1815867  )
       169        H      tau( 169) = (   1.0603435   0.6352204   1.3549016  )
       170        C      tau( 170) = (   0.7989584   0.6751085   1.3172052  )
       171        C      tau( 171) = (   0.9531949   0.6992151   1.3980806  )
       172        H      tau( 172) = (   0.5375562   0.7259775   1.3309391  )
       173        C      tau( 173) = (   0.6561514   0.7485459   1.3851797  )
       174        C      tau( 174) = (   0.9707435   0.8006551   1.5340112  )
       175        H      tau( 175) = (   1.0891877   0.8157372   1.5911915  )
       176        C      tau( 176) = (   0.6685412   0.8519243   1.5224163  )
       177        C      tau( 177) = (   0.8318095   0.8843441   1.5989330  )
       178        C      tau( 178) = (   0.5364702   0.9448784   1.6162389  )
       179        O      tau( 179) = (   0.3983141   0.9521402   1.5765546  )
       180        C      tau( 180) = (   0.8100669   1.0031520   1.7383430  )
       181        N      tau( 181) = (   0.6214586   1.0345046   1.7578653  )
       182        O      tau( 182) = (   0.9187167   1.0647235   1.8094497  )
       183        H      tau( 183) = (   0.2879142   1.0874429   1.8169130  )
       184        C      tau( 184) = (   0.5416587   1.1516700   1.8700943  )
       185        C      tau( 185) = (   0.3702152   1.1535431   1.8972190  )
       186        H      tau( 186) = (   0.7634121   1.2628869   1.9479982  )
       187        C      tau( 187) = (   0.6345119   1.2532255   1.9760141  )
       188        C      tau( 188) = (   0.3047863   1.2324862   2.0355193  )
       189        H      tau( 189) = (   0.1750895   1.2234409   2.0593729  )
       190        C      tau( 190) = (   0.5763620   1.3386064   2.1159957  )
       191        C      tau( 191) = (   0.4063685   1.3206650   2.1437742  )
       192        O      tau( 192) = (   0.9583297   1.3644541   2.1311556  )
       193        N      tau( 193) = (   0.6832624   1.4377251   2.2226341  )
       194        H      tau( 194) = (   0.3522611   1.3763026   2.2504804  )
       195        C      tau( 195) = (   0.8711661   1.4450559   2.2125790  )
       196        O      tau( 196) = (   0.5030915   1.5679945   2.4281614  )
       197        C      tau( 197) = (   0.6332714   1.5488660   2.3705982  )
       198        C      tau( 198) = (   0.9322168   1.5670224   2.3382273  )
       199        C      tau( 199) = (   0.7888057   1.6274307   2.4338302  )
       200        H      tau( 200) = (   1.1966944   1.5855814   2.3029001  )
       201        C      tau( 201) = (   1.0923463   1.6265699   2.3730520  )
       202        C      tau( 202) = (   0.8175042   1.7437285   2.5606261  )
       203        H      tau( 203) = (   0.7153872   1.7894628   2.6311999  )
       204        C      tau( 204) = (   1.1123437   1.7403943   2.5011619  )
       205        C      tau( 205) = (   0.9769388   1.7982022   2.5934198  )
       206        H      tau( 206) = (   1.2340759   1.7848932   2.5288214  )
       207        H      tau( 207) = (   1.1216279   2.0893341   2.9618669  )
       208        O      tau( 208) = (   1.0061929   1.9138230   2.7150002  )
       209        C      tau( 209) = (   1.0990819   1.9611619   2.9854217  )
       210        C      tau( 210) = (   1.0521320   1.8531970   2.8542680  )
       211        H      tau( 211) = (   1.1416118   1.9870690   3.2412350  )
       212        H      tau( 212) = (   1.1655685   1.4151061   3.2602877  )
       213        H      tau( 213) = (   1.3391377   1.8351305   3.3683586  )
       214        C      tau( 214) = (   1.1120815   1.9021303   3.1444297  )
       215        C      tau( 215) = (   1.0359348   1.6808784   2.8889453  )
       216        H      tau( 216) = (   1.0063385   1.5970327   2.7914698  )
       217        C      tau( 217) = (   1.2322797   1.5116774   3.3255854  )
       218        C      tau( 218) = (   1.0921365   1.7307250   3.1804537  )
       219        C      tau( 219) = (   1.2326143   1.7981987   3.4422387  )
       220        H      tau( 220) = (   1.3419246   1.5400439   3.2524800  )
       221        C      tau( 221) = (   1.0564675   1.6215209   3.0468082  )
       222        H      tau( 222) = (   1.1638798   1.9098612   3.4732905  )
       223        H      tau( 223) = (   1.2733169   1.4616303   3.4430720  )
       224        H      tau( 224) = (   1.2812867   1.7473736   3.5570487  )
       225        C      tau( 225) = (   1.1225006   1.6716864   3.3480941  )
       226        H      tau( 226) = (   1.0453364   1.4909131   3.0662109  )
       227        C      tau( 227) = (   0.9725148   1.6366339   3.4442701  )
       228        H      tau( 228) = (   0.8587010   1.4825194   3.2600534  )
       229        H      tau( 229) = (   1.0356970   1.7783601   3.6616318  )
       230        C      tau( 230) = (   0.8456135   1.5338294   3.3806634  )
       231        C      tau( 231) = (   0.9446844   1.7008977   3.6052334  )
       232        C      tau( 232) = (   0.7047554   1.4947221   3.4712956  )
       233        C      tau( 233) = (   0.8017295   1.6679168   3.6945189  )
       234        H      tau( 234) = (   0.6147183   1.4110929   3.4216823  )
       235        H      tau( 235) = (   0.7863675   1.7205108   3.8152610  )
       236        C      tau( 236) = (   0.6788478   1.5634218   3.6289999  )
       237        O      tau( 237) = (   0.5351415   1.5293738   3.7075793  )
       238        H      tau( 238) = (   0.8172457   1.4200896   3.8325512  )
       239        C      tau( 239) = (   0.5501388   1.4376893   3.8380087  )
       240        C      tau( 240) = (   0.7083479   1.3909770   3.9009873  )
       241        H      tau( 241) = (   0.2855264   1.4127610   3.8703247  )
       242        C      tau( 242) = (   0.4055531   1.3878254   3.9211067  )
       243        C      tau( 243) = (   0.7277555   1.3096847   4.0491161  )
       244        H      tau( 244) = (   0.8486678   1.2796302   4.0941231  )
       245        C      tau( 245) = (   0.4207262   1.3007923   4.0690991  )
       246        C      tau( 246) = (   0.5862983   1.2616983   4.1391060  )
       247        C      tau( 247) = (   0.2916693   1.2251742   4.1787861  )
       248        O      tau( 248) = (   0.1497574   1.2423478   4.1620145  )
       249        C      tau( 249) = (   0.5715995   1.1611060   4.2929102  )
       250        N      tau( 250) = (   0.3823403   1.1277370   4.3133068  )
       251        O      tau( 251) = (   0.6814198   1.1174617   4.3745555  )
       252        C      tau( 252) = (   0.3008602   1.0290314   4.4390834  )
       253        H      tau( 253) = (   0.5195365   0.9521000   4.5614476  )
       254        H      tau( 254) = (   0.0525105   1.0834639   4.3581417  )
       255        C      tau( 255) = (   0.3876151   0.9379923   4.5587849  )
       256        C      tau( 256) = (   0.1272316   1.0158916   4.4437389  )
       257        C      tau( 257) = (   0.3151981   0.8277745   4.6720183  )
       258        C      tau( 258) = (   0.0478112   0.9175372   4.5603085  )
       259        H      tau( 259) = (  -0.0845209   0.9127531   4.5631239  )
       260        O      tau( 260) = (   0.2038967   0.5691259   4.9377110  )
       261        C      tau( 261) = (   0.1414680   0.8242625   4.6710300  )
       262        N      tau( 262) = (   0.4110668   0.7176217   4.7767874  )
       263        C      tau( 263) = (   0.3412824   0.5943578   4.9051271  )
       264        O      tau( 264) = (   0.7001144   0.7847356   4.7167003  )
       265        C      tau( 265) = (   0.6006338   0.7061270   4.7846065  )
       266        H      tau( 266) = (   0.0773456   0.7474936   4.7569244  )
       267        C      tau( 267) = (   0.4852670   0.5105012   4.9873236  )
       268        C      tau( 268) = (   0.6385711   0.5749530   4.9100017  )
       269        H      tau( 269) = (   0.3866246   0.3508645   5.1754462  )
       270        C      tau( 270) = (   0.4967648   0.3943891   5.1143918  )
       271        C      tau( 271) = (   0.7925917   0.5086709   4.9571522  )
       272        H      tau( 272) = (   0.9037149   0.5506033   4.8985397  )
       273        C      tau( 273) = (   0.6521232   0.3382952   5.1644286  )
       274        C      tau( 274) = (   0.7969881   0.3886638   5.0784408  )
       275        O      tau( 275) = (   0.6688107   0.2484122   5.3013518  )
       276        H      tau( 276) = (   0.9143337   0.3366633   5.1102534  )

   Crystallographic axes

     site n.     atom                  positions (cryst. coord.)
         1        H      tau(   1) = (  0.4764639  0.0058558  0.0547923  )
         2        C      tau(   2) = (  0.5032714 -0.0769233  0.0733519  )
         3        C      tau(   3) = (  0.5320111 -0.2380859  0.0654372  )
         4        H      tau(   4) = (  0.6840542 -0.1498010  0.2073991  )
         5        H      tau(   5) = (  0.4916543  0.0972328  0.1094598  )
         6        H      tau(   6) = (  0.7316891  0.1035630  0.1869025  )
         7        C      tau(   7) = (  0.5114709 -0.0249250  0.1045212  )
         8        C      tau(   8) = (  0.5667493 -0.3445747  0.0911201  )
         9        H      tau(   9) = (  0.5880241 -0.4666634  0.0860422  )
        10        C      tau(  10) = (  0.5487308 -0.1299511  0.1302157  )
        11        C      tau(  11) = (  0.6484171 -0.1965111  0.1841319  )
        12        C      tau(  12) = (  0.5743127 -0.2917080  0.1221623  )
        13        H      tau(  13) = (  0.5656351 -0.2956604  0.1881924  )
        14        C      tau(  14) = (  0.6942816  0.0732765  0.1626122  )
        15        H      tau(  15) = (  0.7601200 -0.2423426  0.1728602  )
        16        H      tau(  16) = (  0.6007761 -0.3758758  0.1405266  )
        17        C      tau(  17) = (  0.5657802 -0.0662065  0.1625535  )
        18        H      tau(  18) = (  0.8063115  0.0424122  0.1496520  )
        19        H      tau(  19) = (  0.6426249  0.1784713  0.1516637  )
        20        C      tau(  20) = (  0.4119693 -0.0106980  0.1773063  )
        21        H      tau(  21) = (  0.2550744 -0.1748094  0.1524466  )
        22        H      tau(  22) = (  0.5142097  0.1800860  0.2055940  )
        23        C      tau(  23) = (  0.2583581 -0.0847899  0.1702302  )
        24        C      tau(  24) = (  0.4048010  0.1154887  0.1998085  )
        25        C      tau(  25) = (  0.1148806 -0.0478433  0.1864908  )
        26        C      tau(  26) = (  0.2599146  0.1596158  0.2147129  )
        27        H      tau(  27) = (  0.0047821 -0.1133823  0.1816135  )
        28        H      tau(  28) = (  0.2607729  0.2586336  0.2306034  )
        29        C      tau(  29) = (  0.1118181  0.0726583  0.2100941  )
        30        O      tau(  30) = ( -0.0254995  0.0950960  0.2265111  )
        31        H      tau(  31) = (  0.2305001  0.1027099  0.2691399  )
        32        C      tau(  32) = ( -0.0232197  0.1512792  0.2559247  )
        33        C      tau(  33) = (  0.1213475  0.1670097  0.2752334  )
        34        H      tau(  34) = ( -0.2857132  0.1914585  0.2549193  )
        35        C      tau(  35) = ( -0.1729079  0.2142174  0.2674422  )
        36        C      tau(  36) = (  0.1276263  0.2646661  0.3015243  )
        37        H      tau(  37) = (  0.2405844  0.2783604  0.3145943  )
        38        C      tau(  38) = ( -0.1731658  0.3086826  0.2948834  )
        39        C      tau(  39) = ( -0.0163604  0.3439436  0.3118026  )
        40        C      tau(  40) = ( -0.3115053  0.3887814  0.3126570  )
        41        O      tau(  41) = ( -0.4490307  0.3843283  0.3047638  )
        42        C      tau(  42) = ( -0.0478352  0.4524538  0.3393525  )
        43        N      tau(  43) = ( -0.2355136  0.4782906  0.3412726  )
        44        O      tau(  44) = (  0.0541684  0.5069978  0.3556049  )
        45        H      tau(  45) = ( -0.5642094  0.4839608  0.3510221  )
        46        C      tau(  46) = ( -0.3259360  0.5715804  0.3647993  )
        47        C      tau(  47) = ( -0.4993948  0.5629095  0.3663917  )
        48        H      tau(  48) = ( -0.1211360  0.6893659  0.3859876  )
        49        C      tau(  49) = ( -0.2530163  0.6774703  0.3864857  )
        50        C      tau(  50) = ( -0.5918344  0.6549148  0.3874909  )
        51        H      tau(  51) = ( -0.7243999  0.6470008  0.3877229  )
        52        C      tau(  52) = ( -0.3379853  0.7735602  0.4083823  )
        53        C      tau(  53) = ( -0.5117055  0.7576297  0.4082584  )
        54        O      tau(  54) = ( -0.4954642  0.9682290  0.4618151  )
        55        N      tau(  55) = ( -0.2599230  0.8859579  0.4298138  )
        56        H      tau(  56) = ( -0.5864137  0.8263800  0.4240436  )
        57        C      tau(  57) = ( -0.3544773  0.9712744  0.4561858  )
        58        O      tau(  58) = (  0.0409654  0.8701496  0.4217454  )
        59        C      tau(  59) = ( -0.0715489  0.9202248  0.4355653  )
        60        C      tau(  60) = ( -0.2303158  1.0583887  0.4761445  )
        61        C      tau(  61) = ( -0.0613656  1.0291518  0.4637003  )
        62        H      tau(  62) = ( -0.3825649  1.1774961  0.5110570  )
        63        C      tau(  63) = ( -0.2591007  1.1569654  0.5027270  )
        64        C      tau(  64) = (  0.0695673  1.1069079  0.4790851  )
        65        H      tau(  65) = (  0.1931190  1.0946192  0.4702452  )
        66        C      tau(  66) = ( -0.1245654  1.2255789  0.5176380  )
        67        C      tau(  67) = (  0.0380013  1.2017854  0.5057247  )
        68        H      tau(  68) = ( -0.1452495  1.2984165  0.5381592  )
        69        H      tau(  69) = (  0.2770889  0.9885274  0.5142153  )
        70        O      tau(  70) = (  0.1546425  1.2897604  0.5199557  )
        71        C      tau(  71) = (  0.3294743  1.0650343  0.5317682  )
        72        C      tau(  72) = (  0.2839083  1.2273593  0.5333210  )
        73        H      tau(  73) = (  0.4620044  0.8802126  0.5524096  )
        74        H      tau(  74) = (  0.5642083  0.7669834  0.5906345  )
        75        H      tau(  75) = (  0.8772706  1.0492128  0.6213076  )
        76        C      tau(  76) = (  0.4374634  1.0038352  0.5536979  )
        77        C      tau(  77) = (  0.3680287  1.3247943  0.5561271  )
        78        H      tau(  78) = (  0.3393126  1.4479138  0.5571525  )
        79        C      tau(  79) = (  0.6715554  0.8443524  0.5903460  )
        80        C      tau(  80) = (  0.5170526  1.0961931  0.5779061  )
        81        C      tau(  81) = (  0.7974476  1.0992030  0.6028973  )
        82        H      tau(  82) = (  0.7228264  0.8456882  0.5661983  )
        83        C      tau(  83) = (  0.4784816  1.2608096  0.5772284  )
        84        H      tau(  84) = (  0.8619833  1.0878834  0.5801290  )
        85        H      tau(  85) = (  0.7646497  0.7889923  0.6054615  )
        86        H      tau(  86) = (  0.7844342  1.2238675  0.6078319  )
        87        C      tau(  87) = (  0.6280048  1.0161313  0.6019105  )
        88        H      tau(  88) = (  0.5355467  1.3383239  0.5942037  )
        89        C      tau(  89) = (  0.5565249  1.0122980  0.6339696  )
        90        H      tau(  90) = (  0.7505448  0.8700208  0.6549507  )
        91        H      tau(  91) = (  0.3382717  1.1501195  0.6233793  )
        92        C      tau(  92) = (  0.6360276  0.9294744  0.6594065  )
        93        C      tau(  93) = (  0.4046800  1.0884734  0.6417408  )
        94        C      tau(  94) = (  0.5688506  0.9199828  0.6896523  )
        95        C      tau(  95) = (  0.3411741  1.0858186  0.6723234  )
        96        H      tau(  96) = (  0.6305454  0.8510972  0.7073345  )
        97        H      tau(  97) = (  0.2276817  1.1460497  0.6771855  )
        98        C      tau(  98) = (  0.4195791  0.9999304  0.6975172  )
        99        O      tau(  99) = (  0.3443099  0.9913169  0.7248823  )
       100        H      tau( 100) = (  0.6470109  0.9415740  0.7527330  )
       101        C      tau( 101) = (  0.3876655  0.8942631  0.7489750  )
       102        C      tau( 102) = (  0.5466223  0.8747009  0.7623966  )
       103        H      tau( 103) = (  0.1336196  0.8283137  0.7546681  )
       104        C      tau( 104) = (  0.2568027  0.8148808  0.7636578  )
       105        C      tau( 105) = (  0.5812044  0.7740997  0.7878304  )
       106        H      tau( 106) = (  0.7056869  0.7614846  0.7962452  )
       107        C      tau( 107) = (  0.2847082  0.7215431  0.7910438  )
       108        C      tau( 108) = (  0.4530575  0.6931099  0.8035357  )
       109        C      tau( 109) = (  0.1620227  0.6409692  0.8124766  )
       110        O      tau( 110) = (  0.0200302  0.6432473  0.8078576  )
       111        C      tau( 111) = (  0.4431573  0.5871987  0.8322807  )
       112        N      tau( 112) = (  0.2592124  0.5592266  0.8392973  )
       113        O      tau( 113) = (  0.5556763  0.5375069  0.8464352  )
       114        C      tau( 114) = (  0.1860320  0.4636911  0.8648695  )
       115        H      tau( 115) = (  0.4005287  0.3385727  0.8785605  )
       116        H      tau( 116) = ( -0.0571933  0.5625073  0.8586944  )
       117        C      tau( 117) = (  0.2719289  0.3548222  0.8839271  )
       118        C      tau( 118) = (  0.0169214  0.4796563  0.8716974  )
       119        C      tau( 119) = (  0.2065028  0.2654936  0.9093141  )
       120        C      tau( 120) = ( -0.0585751  0.3890884  0.8953895  )
       121        H      tau( 121) = ( -0.1885534  0.4018140  0.8998546  )
       122        O      tau( 122) = (  0.0924898  0.0538470  0.9665075  )
       123        C      tau( 123) = (  0.0353651  0.2835511  0.9134252  )
       124        N      tau( 124) = (  0.3018296  0.1694481  0.9316660  )
       125        C      tau( 125) = (  0.2303642  0.0702934  0.9593815  )
       126        O      tau( 126) = (  0.5911397  0.2036972  0.9171697  )
       127        C      tau( 127) = (  0.4899566  0.1471367  0.9332607  )
       128        H      tau( 128) = ( -0.0273747  0.2175907  0.9314610  )
       129        C      tau( 129) = (  0.3699368 -0.0098159  0.9763280  )
       130        C      tau( 130) = (  0.5257532  0.0354767  0.9603662  )
       131        H      tau( 131) = (  0.2628773 -0.1454077  1.0148660  )
       132        C      tau( 132) = (  0.3748943 -0.1144759  1.0026956  )
       133        C      tau( 133) = (  0.6747819 -0.0304080  0.9715868  )
       134        H      tau( 134) = (  0.7895328  0.0007980  0.9605008  )
       135        C      tau( 135) = (  0.5235547 -0.1798436  1.0124065  )
       136        C      tau( 136) = (  0.6711171 -0.1393108  0.9965982  )
       137        O      tau( 137) = (  0.5298334 -0.2903527  1.0365675  )
       138        H      tau( 138) = (  0.7848198 -0.1925916  1.0040728  )
       139        H      tau( 139) = (  0.7743676  0.5290790  0.0321010  )
       140        C      tau( 140) = (  0.8330831  0.4463540  0.0477223  )
       141        C      tau( 141) = (  0.7880922  0.2845128  0.0464451  )
       142        H      tau( 142) = (  1.3575308  0.3407056  0.0944957  )
       143        H      tau( 143) = (  0.9729054  0.6244468  0.0702099  )
       144        H      tau( 144) = (  1.2370180  0.6335507  0.0792198  )
       145        C      tau( 145) = (  0.9477350  0.5007584  0.0695450  )
       146        C      tau( 146) = (  0.8661126  0.1805205  0.0684437  )
       147        H      tau( 147) = (  0.8328216  0.0581993  0.0684508  )
       148        C      tau( 148) = (  1.0295998  0.3965466  0.0911236  )
       149        C      tau( 149) = (  1.3045000  0.3660939  0.1179700  )
       150        C      tau( 150) = (  0.9840416  0.2346327  0.0896371  )
       151        H      tau( 151) = (  1.3987541  0.4299894  0.1313622  )
       152        C      tau( 152) = (  1.2023491  0.6294440  0.1044731  )
       153        H      tau( 153) = (  1.2839719  0.2556847  0.1305048  )
       154        H      tau( 154) = (  1.0394391  0.1521438  0.1058345  )
       155        C      tau( 155) = (  1.1406855  0.4649483  0.1147660  )
       156        H      tau( 156) = (  1.1110101  0.7211135  0.1090760  )
       157        H      tau( 157) = (  1.3120474  0.6630646  0.1177883  )
       158        C      tau( 158) = (  1.0541959  0.4807565  0.1466534  )
       159        H      tau( 159) = (  0.8323623  0.3578505  0.1322766  )
       160        H      tau( 160) = (  1.2429070  0.6102388  0.1720348  )
       161        C      tau( 161) = (  0.8906889  0.4204681  0.1514788  )
       162        C      tau( 162) = (  1.1206171  0.5631747  0.1736633  )
       163        C      tau( 163) = (  0.8047290  0.4393938  0.1794081  )
       164        C      tau( 164) = (  1.0346061  0.5885508  0.2014119  )
       165        H      tau( 165) = (  0.6833458  0.3907855  0.1814160  )
       166        H      tau( 166) = (  1.0914333  0.6563990  0.2197691  )
       167        C      tau( 167) = (  0.8714778  0.5278186  0.2056352  )
       168        O      tau( 168) = (  0.7697624  0.5604797  0.2290082  )
       169        H      tau( 169) = (  1.0603435  0.6055452  0.2625991  )
       170        C      tau( 170) = (  0.7989584  0.6435698  0.2552930  )
       171        C      tau( 171) = (  0.9531949  0.6665502  0.2709678  )
       172        H      tau( 172) = (  0.5375562  0.6920624  0.2579548  )
       173        C      tau( 173) = (  0.6561514  0.7135764  0.2684674  )
       174        C      tau( 174) = (  0.9707435  0.7632513  0.2973131  )
       175        H      tau( 175) = (  1.0891877  0.7776288  0.3083954  )
       176        C      tau( 176) = (  0.6685412  0.8121254  0.2950658  )
       177        C      tau( 177) = (  0.8318095  0.8430307  0.3098958  )
       178        C      tau( 178) = (  0.5364702  0.9007370  0.3132500  )
       179        O      tau( 179) = (  0.3983141  0.9076596  0.3055586  )
       180        C      tau( 180) = (  0.8100669  0.9562883  0.3369155  )
       181        N      tau( 181) = (  0.6214586  0.9861762  0.3406992  )
       182        O      tau( 182) = (  0.9187167  1.0149834  0.3506969  )
       183        H      tau( 183) = (  0.2879142  1.0366414  0.3521434  )
       184        C      tau( 184) = (  0.5416587  1.0978680  0.3624507  )
       185        C      tau( 185) = (  0.3702152  1.0996536  0.3677079  )
       186        H      tau( 186) = (  0.7634121  1.2038893  0.3775496  )
       187        C      tau( 187) = (  0.6345119  1.1946792  0.3829795  )
       188        C      tau( 188) = (  0.3047863  1.1749088  0.3945124  )
       189        H      tau( 189) = (  0.1750895  1.1662860  0.3991356  )
       190        C      tau( 190) = (  0.5763620  1.2760714  0.4101099  )
       191        C      tau( 191) = (  0.4063685  1.2589681  0.4154938  )
       192        O      tau( 192) = (  0.9583297  1.3007116  0.4130481  )
       193        N      tau( 193) = (  0.6832624  1.3705597  0.4307779  )
       194        H      tau( 194) = (  0.3522611  1.3120066  0.4361749  )
       195        C      tau( 195) = (  0.8711661  1.3775480  0.4288291  )
       196        O      tau( 196) = (  0.5030915  1.4947433  0.4706120  )
       197        C      tau( 197) = (  0.6332714  1.4765084  0.4594555  )
       198        C      tau( 198) = (  0.9322168  1.4938167  0.4531815  )
       199        C      tau( 199) = (  0.7888057  1.5514028  0.4717107  )
       200        H      tau( 200) = (  1.1966944  1.5115086  0.4463346  )
       201        C      tau( 201) = (  1.0923463  1.5505823  0.4599310  )
       202        C      tau( 202) = (  0.8175042  1.6622676  0.4962855  )
       203        H      tau( 203) = (  0.7153872  1.7058654  0.5099638  )
       204        C      tau( 204) = (  1.1123437  1.6590892  0.4847606  )
       205        C      tau( 205) = (  0.9769388  1.7141966  0.5026414  )
       206        H      tau( 206) = (  1.2340759  1.7015093  0.4901214  )
       207        H      tau( 207) = (  1.1216279  1.9917277  0.5740517  )
       208        O      tau( 208) = (  1.0061929  1.8244159  0.5262054  )
       209        C      tau( 209) = (  1.0990819  1.8695433  0.5786169  )
       210        C      tau( 210) = (  1.0521320  1.7666222  0.5531975  )
       211        H      tau( 211) = (  1.1416118  1.8942401  0.6281972  )
       212        H      tau( 212) = (  1.1655685  1.3489973  0.6318899  )
       213        H      tau( 213) = (  1.3391377  1.7493997  0.6528355  )
       214        C      tau( 214) = (  1.1120815  1.8132694  0.6094349  )
       215        C      tau( 215) = (  1.0359348  1.6023537  0.5599185  )
       216        H      tau( 216) = (  1.0063385  1.5224250  0.5410263  )
       217        C      tau( 217) = (  1.2322797  1.4410572  0.6445455  )
       218        C      tau( 218) = (  1.0921365  1.6498716  0.6164169  )
       219        C      tau( 219) = (  1.2326143  1.7141932  0.6671545  )
       220        H      tau( 220) = (  1.3419246  1.4680985  0.6303766  )
       221        C      tau( 221) = (  1.0564675  1.5457692  0.5905145  )
       222        H      tau( 222) = (  1.1638798  1.8206392  0.6731728  )
       223        H      tau( 223) = (  1.2733169  1.3933481  0.6673161  )
       224        H      tau( 224) = (  1.2812867  1.6657425  0.6894063  )
       225        C      tau( 225) = (  1.1225006  1.5935911  0.6489080  )
       226        H      tau( 226) = (  1.0453364  1.4212629  0.5942750  )
       227        C      tau( 227) = (  0.9725148  1.5601761  0.6675483  )
       228        H      tau( 228) = (  0.8587010  1.4132614  0.6318445  )
       229        H      tau( 229) = (  1.0356970  1.6952814  0.7096760  )
       230        C      tau( 230) = (  0.8456135  1.4621742  0.6552204  )
       231        C      tau( 231) = (  0.9446844  1.6214377  0.6987452  )
       232        C      tau( 232) = (  0.7047554  1.4248939  0.6727862  )
       233        C      tau( 233) = (  0.8017295  1.5899976  0.7160500  )
       234        H      tau( 234) = (  0.6147183  1.3451716  0.6631704  )
       235        H      tau( 235) = (  0.7863675  1.6401346  0.7394515  )
       236        C      tau( 236) = (  0.6788478  1.4903842  0.7033515  )
       237        O      tau( 237) = (  0.5351415  1.4579268  0.7185813  )
       238        H      tau( 238) = (  0.8172457  1.3537480  0.7428026  )
       239        C      tau( 239) = (  0.5501388  1.3705255  0.7438604  )
       240        C      tau( 240) = (  0.7083479  1.3259954  0.7560665  )
       241        H      tau( 241) = (  0.2855264  1.3467618  0.7501237  )
       242        C      tau( 242) = (  0.4055531  1.3229911  0.7599659  )
       243        C      tau( 243) = (  0.7277555  1.2485008  0.7847760  )
       244        H      tau( 244) = (  0.8486678  1.2198504  0.7934990  )
       245        C      tau( 245) = (  0.4207262  1.2400238  0.7886490  )
       246        C      tau( 246) = (  0.5862983  1.2027562  0.8022173  )
       247        C      tau( 247) = (  0.2916693  1.1679384  0.8099079  )
       248        O      tau( 248) = (  0.1497574  1.1843097  0.8066573  )
       249        C      tau( 249) = (  0.5715995  1.1068633  0.8320267  )
       250        N      tau( 250) = (  0.3823403  1.0750531  0.8359799  )
       251        O      tau( 251) = (  0.6814198  1.0652578  0.8478507  )
       252        C      tau( 252) = (  0.3008602  0.9809587  0.8603572  )
       253        H      tau( 253) = (  0.5195365  0.9076213  0.8840731  )
       254        H      tau( 254) = (  0.0525105  1.0328483  0.8446695  )
       255        C      tau( 255) = (  0.3876151  0.8941726  0.8835570  )
       256        C      tau( 256) = (  0.1272316  0.9684327  0.8612594  )
       257        C      tau( 257) = (  0.3151981  0.7891038  0.9055032  )
       258        C      tau( 258) = (  0.0478112  0.8746731  0.8838523  )
       259        H      tau( 259) = ( -0.0845209  0.8701125  0.8843980  )
       260        O      tau( 260) = (  0.2038967  0.5425383  0.9569982  )
       261        C      tau( 261) = (  0.1414680  0.7857558  0.9053117  )
       262        N      tau( 262) = (  0.4110668  0.6840970  0.9258090  )
       263        C      tau( 263) = (  0.3412824  0.5665915  0.9506830  )
       264        O      tau( 264) = (  0.7001144  0.7480755  0.9141632  )
       265        C      tau( 265) = (  0.6006338  0.6731393  0.9273244  )
       266        H      tau( 266) = (  0.0773456  0.7125733  0.9219592  )
       267        C      tau( 267) = (  0.4852670  0.4866524  0.9666139  )
       268        C      tau( 268) = (  0.6385711  0.5480932  0.9516278  )
       269        H      tau( 269) = (  0.3866246  0.3344733  1.0030747  )
       270        C      tau( 270) = (  0.4967648  0.3759646  0.9912415  )
       271        C      tau( 271) = (  0.7925917  0.4849076  0.9607662  )
       272        H      tau( 272) = (  0.9037149  0.5248810  0.9494063  )
       273        C      tau( 273) = (  0.6521232  0.3224912  1.0009393  )
       274        C      tau( 274) = (  0.7969881  0.3705068  0.9842737  )
       275        O      tau( 275) = (  0.6688107  0.2368072  1.0274770  )
       276        H      tau( 276) = (  0.9143337  0.3209356  0.9904394  )

     number of k points=    18
                       cart. coord. in units 2pi/alat
        k(    1) = (   0.0000000   0.0000000   0.0000000), wk =   0.1111111
        k(    2) = (   0.0000000   0.0000000   0.0969071), wk =   0.1111111
        k(    3) = (   0.0000000   0.3177612   0.0000000), wk =   0.1111111
        k(    4) = (   0.0000000   0.3177612   0.0969071), wk =   0.1111111
        k(    5) = (   0.0000000   0.6355223   0.0000000), wk =   0.1111111
        k(    6) = (   0.0000000   0.6355223   0.0969071), wk =   0.1111111
        k(    7) = (   0.3333333   0.0000000   0.0000000), wk =   0.1111111
        k(    8) = (   0.3333333   0.0000000   0.0969071), wk =   0.1111111
        k(    9) = (   0.3333333   0.3177612   0.0000000), wk =   0.1111111
        k(   10) = (   0.3333333   0.3177612   0.0969071), wk =   0.1111111
        k(   11) = (   0.3333333   0.6355223   0.0000000), wk =   0.1111111
        k(   12) = (   0.3333333   0.6355223   0.0969071), wk =   0.1111111
        k(   13) = (   0.6666667   0.0000000   0.0000000), wk =   0.1111111
        k(   14) = (   0.6666667   0.0000000   0.0969071), wk =   0.1111111
        k(   15) = (   0.6666667   0.3177612   0.0000000), wk =   0.1111111
        k(   16) = (   0.6666667   0.3177612   0.0969071), wk =   0.1111111
        k(   17) = (   0.6666667   0.6355223   0.0000000), wk =   0.1111111
        k(   18) = (   0.6666667   0.6355223   0.0969071), wk =   0.1111111

                       cryst. coord.
        k(    1) = (   0.0000000   0.0000000   0.0000000), wk =   0.1111111
        k(    2) = (   0.0000000   0.0000000   0.5000000), wk =   0.1111111
        k(    3) = (   0.0000000   0.3333333   0.0000000), wk =   0.1111111
        k(    4) = (   0.0000000   0.3333333   0.5000000), wk =   0.1111111
        k(    5) = (   0.0000000   0.6666667   0.0000000), wk =   0.1111111
        k(    6) = (   0.0000000   0.6666667   0.5000000), wk =   0.1111111
        k(    7) = (   0.3333333   0.0000000   0.0000000), wk =   0.1111111
        k(    8) = (   0.3333333   0.0000000   0.5000000), wk =   0.1111111
        k(    9) = (   0.3333333   0.3333333   0.0000000), wk =   0.1111111
        k(   10) = (   0.3333333   0.3333333   0.5000000), wk =   0.1111111
        k(   11) = (   0.3333333   0.6666667   0.0000000), wk =   0.1111111
        k(   12) = (   0.3333333   0.6666667   0.5000000), wk =   0.1111111
        k(   13) = (   0.6666667   0.0000000   0.0000000), wk =   0.1111111
        k(   14) = (   0.6666667   0.0000000   0.5000000), wk =   0.1111111
        k(   15) = (   0.6666667   0.3333333   0.0000000), wk =   0.1111111
        k(   16) = (   0.6666667   0.3333333   0.5000000), wk =   0.1111111
        k(   17) = (   0.6666667   0.6666667   0.0000000), wk =   0.1111111
        k(   18) = (   0.6666667   0.6666667   0.5000000), wk =   0.1111111

     Dense  grid:   703707 G-vectors     FFT dimensions: (  64,  72, 360)

     Dynamical RAM for                 wfc:       2.61 MB

     Dynamical RAM for     wfc (w. buffer):      49.55 MB

     Dynamical RAM for           str. fact:       0.19 MB

     Dynamical RAM for           local pot:       0.00 MB

     Dynamical RAM for          nlocal pot:      12.20 MB

     Dynamical RAM for                qrad:       2.90 MB

     Dynamical RAM for          rho,v,vnew:       0.36 MB

     Dynamical RAM for               rhoin:       0.12 MB

     Dynamical RAM for            rho*nmix:       0.77 MB

     Dynamical RAM for           G-vectors:       0.20 MB

     Dynamical RAM for          h,s,v(r/c):       2.18 MB

     Dynamical RAM for          <psi|beta>:      13.57 MB

     Dynamical RAM for                 psi:       5.22 MB

     Dynamical RAM for                hpsi:       5.22 MB

     Dynamical RAM for      wfcinit/wfcrot:       9.57 MB

     Estimated static dynamical RAM per process >      66.12 MB

     Estimated max dynamical RAM per process >      93.07 MB

     Estimated total dynamical RAM >      20.36 GB

     Check: negative core charge=   -0.000158

     Initial potential from superposition of free atoms

     starting charge     871.9924, renormalised to     872.0000
     Starting wfcs are  816 randomized atomic wfcs

     total cpu time spent up to now is       44.6 secs

     per-process dynamical memory:   173.5 Mb

     Self-consistent Calculation

     iteration #  1     ecut=    40.00 Ry     beta= 0.50
     Davidson diagonalization with overlap

---- Real-time Memory Report at c_bands before calling an iterative solver
           304 MiB given to the printing process from OS
           202 MiB allocation reported by mallinfo(arena+hblkhd)
        484207 MiB available memory on the node where the printing process lives
------------------
     ethr =  1.00E-02,  avg # of iterations =  2.0

     Expectation value of exp(iGx):  (2.97808598604708091E-005,-3.81692748416119596E-005)   1.0000000000000000     
     Electronic Dipole per cell (Ry a.u.)  -6.3825698048347324     
     Ionic Dipole per cell (Ry a.u.)   9289.0412334856428     

     Expectation value of exp(iGx):   (3.00166850789063805E-004,1.77829979240678760E-004)   1.0490058639940258     
     Electronic Dipole per cell (Ry a.u.)   3.9427867568198689     
     Ionic Dipole per cell (Ry a.u.)   15512.130366456693     

     Expectation value of exp(iGx):       (-0.57298280721664052,9.55397447327398751E-003)   5.1595821521437895     
     Electronic Dipole per cell (Ry a.u.)   113.30653328490257     
     Ionic Dipole per cell (Ry a.u.)   54330.804674140250     
Electronic Dipole on Cartesian axes
           1  -6.3825698048347324     
           2   3.9427867568198689     
           3   113.30653328490257     
Ionic Dipole on Cartesian axes
           1   9289.0412334856428     
           2   15512.130366456693     
           3   54330.804674140250     

     total cpu time spent up to now is      441.2 secs

     total energy              =   -2837.60055531 Ry
     estimated scf accuracy    <      23.33899889 Ry

     iteration #  2     ecut=    40.00 Ry     beta= 0.50
     Davidson diagonalization with overlap

---- Real-time Memory Report at c_bands before calling an iterative solver
           317 MiB given to the printing process from OS
           231 MiB allocation reported by mallinfo(arena+hblkhd)
        482503 MiB available memory on the node where the printing process lives
------------------
     ethr =  2.68E-03,  avg # of iterations =  4.0

     Expectation value of exp(iGx):  (2.03807252545156312E-005,-1.19958841274476700E-005)   1.0000000000000000     
     Electronic Dipole per cell (Ry a.u.)  -3.7385463040341147     
     Ionic Dipole per cell (Ry a.u.)   9289.0412334856428     

     Expectation value of exp(iGx):   (1.77603738403815875E-004,8.46401794428786633E-005)   1.0490058639940258     
     Electronic Dipole per cell (Ry a.u.)   3.2784794870849638     
     Ionic Dipole per cell (Ry a.u.)   15512.130366456693     

     Expectation value of exp(iGx):      (-0.55302984130340960,-2.54317539288607987E-002)   5.1595821521437895     
     Electronic Dipole per cell (Ry a.u.)  -112.24482246114484     
     Ionic Dipole per cell (Ry a.u.)   54330.804674140250     
Electronic Dipole on Cartesian axes
           1  -3.7385463040341147     
           2   3.2784794870849638     
           3  -112.24482246114484     
Ionic Dipole on Cartesian axes
           1   9289.0412334856428     
           2   15512.130366456693     
           3   54330.804674140250     

     total cpu time spent up to now is      864.7 secs

     total energy              =   -2840.70404341 Ry
     estimated scf accuracy    <       3.62736211 Ry

     iteration #  3     ecut=    40.00 Ry     beta= 0.50
     Davidson diagonalization with overlap

---- Real-time Memory Report at c_bands before calling an iterative solver
           317 MiB given to the printing process from OS
           203 MiB allocation reported by mallinfo(arena+hblkhd)
        483200 MiB available memory on the node where the printing process lives
------------------
     ethr =  4.16E-04,  avg # of iterations =  6.0

     Expectation value of exp(iGx):  (1.46438624905080230E-005,-1.37940321431018318E-005)   1.0000000000000000     
     Electronic Dipole per cell (Ry a.u.)  -5.3094481032635130     
     Ionic Dipole per cell (Ry a.u.)   9289.0412334856428     

     Expectation value of exp(iGx):   (1.53237166640701994E-004,8.34867576867113798E-005)   1.0490058639940258     
     Electronic Dipole per cell (Ry a.u.)   3.6775309496875903     
     Ionic Dipole per cell (Ry a.u.)   15512.130366456693     

     Expectation value of exp(iGx):      (-0.55039490944440073,-6.67674146983807029E-003)   5.1595821521437895     
     Electronic Dipole per cell (Ry a.u.)  -113.47123383199218     
     Ionic Dipole per cell (Ry a.u.)   54330.804674140250     
Electronic Dipole on Cartesian axes
           1  -5.3094481032635130     
           2   3.6775309496875903     
           3  -113.47123383199218     
Ionic Dipole on Cartesian axes
           1   9289.0412334856428     
           2   15512.130366456693     
           3   54330.804674140250     

     total cpu time spent up to now is     1306.2 secs

     total energy              =   -2841.06875606 Ry
     estimated scf accuracy    <       0.82738116 Ry

     iteration #  4     ecut=    40.00 Ry     beta= 0.50
     Davidson diagonalization with overlap

---- Real-time Memory Report at c_bands before calling an iterative solver
           317 MiB given to the printing process from OS
           203 MiB allocation reported by mallinfo(arena+hblkhd)
        483265 MiB available memory on the node where the printing process lives
------------------
     ethr =  9.49E-05,  avg # of iterations =  6.0

     Expectation value of exp(iGx):  (1.50906270761953041E-005,-1.49902435401393903E-005)   1.0000000000000000     
     Electronic Dipole per cell (Ry a.u.)  -5.4959422707594809     
     Ionic Dipole per cell (Ry a.u.)   9289.0412334856428     

     Expectation value of exp(iGx):   (1.54509927860095662E-004,8.18735254733087936E-005)   1.0490058639940258     
     Electronic Dipole per cell (Ry a.u.)   3.5921351518416205     
     Ionic Dipole per cell (Ry a.u.)   15512.130366456693     

     Expectation value of exp(iGx):      (-0.55210093956565087,-7.86928912798305104E-003)   5.1595821521437895     
     Electronic Dipole per cell (Ry a.u.)  -113.39428631329544     
     Ionic Dipole per cell (Ry a.u.)   54330.804674140250     
Electronic Dipole on Cartesian axes
           1  -5.4959422707594809     
           2   3.5921351518416205     
           3  -113.39428631329544     
Ionic Dipole on Cartesian axes
           1   9289.0412334856428     
           2   15512.130366456693     
           3   54330.804674140250     

     total cpu time spent up to now is     1739.6 secs

     total energy              =   -2841.18304649 Ry
     estimated scf accuracy    <       0.19168037 Ry

     iteration #  5     ecut=    40.00 Ry     beta= 0.50
     Davidson diagonalization with overlap

---- Real-time Memory Report at c_bands before calling an iterative solver
           317 MiB given to the printing process from OS
           203 MiB allocation reported by mallinfo(arena+hblkhd)
        483145 MiB available memory on the node where the printing process lives
------------------
     ethr =  2.20E-05,  avg # of iterations =  6.0

     Expectation value of exp(iGx):  (1.61449344407189283E-005,-1.33744595333462451E-005)   1.0000000000000000     
     Electronic Dipole per cell (Ry a.u.)  -4.8617693327941947     
     Ionic Dipole per cell (Ry a.u.)   9289.0412334856428     

     Expectation value of exp(iGx):   (1.55757449535535688E-004,7.85949049737398803E-005)   1.0490058639940258     
     Electronic Dipole per cell (Ry a.u.)   3.4450308569657957     
     Ionic Dipole per cell (Ry a.u.)   15512.130366456693     

     Expectation value of exp(iGx):      (-0.55214377179020135,-1.36762597343544987E-002)   5.1595821521437895     
     Electronic Dipole per cell (Ry a.u.)  -113.01313402789806     
     Ionic Dipole per cell (Ry a.u.)   54330.804674140250     
Electronic Dipole on Cartesian axes
           1  -4.8617693327941947     
           2   3.4450308569657957     
           3  -113.01313402789806     
Ionic Dipole on Cartesian axes
           1   9289.0412334856428     
           2   15512.130366456693     
           3   54330.804674140250     

     total cpu time spent up to now is     2175.0 secs

     total energy              =   -2841.21766342 Ry
     estimated scf accuracy    <       0.02374516 Ry

     iteration #  6     ecut=    40.00 Ry     beta= 0.50
     Davidson diagonalization with overlap

---- Real-time Memory Report at c_bands before calling an iterative solver
           317 MiB given to the printing process from OS
           203 MiB allocation reported by mallinfo(arena+hblkhd)
        483074 MiB available memory on the node where the printing process lives
------------------
     ethr =  2.72E-06,  avg # of iterations =  6.0

     Expectation value of exp(iGx):  (1.58264725379569488E-005,-1.33435006277930431E-005)   1.0000000000000000     
     Electronic Dipole per cell (Ry a.u.)  -4.9226449017752865     
     Ionic Dipole per cell (Ry a.u.)   9289.0412334856428     

     Expectation value of exp(iGx):   (1.50923813348473036E-004,8.23184555998406439E-005)   1.0490058639940258     
     Electronic Dipole per cell (Ry a.u.)   3.6809975199585772     
     Ionic Dipole per cell (Ry a.u.)   15512.130366456693     

     Expectation value of exp(iGx):      (-0.55167327667082633,-9.87750243349997878E-003)   5.1595821521437895     
     Electronic Dipole per cell (Ry a.u.)  -113.26192915926548     
     Ionic Dipole per cell (Ry a.u.)   54330.804674140250     
Electronic Dipole on Cartesian axes
           1  -4.9226449017752865     
           2   3.6809975199585772     
           3  -113.26192915926549     
Ionic Dipole on Cartesian axes
           1   9289.0412334856428     
           2   15512.130366456693     
           3   54330.804674140250     

     total cpu time spent up to now is     2612.6 secs

     total energy              =   -2841.22150493 Ry
     estimated scf accuracy    <       0.00388502 Ry

     iteration #  7     ecut=    40.00 Ry     beta= 0.50
     Davidson diagonalization with overlap

---- Real-time Memory Report at c_bands before calling an iterative solver
           318 MiB given to the printing process from OS
           203 MiB allocation reported by mallinfo(arena+hblkhd)
        483097 MiB available memory on the node where the printing process lives
------------------
     ethr =  4.46E-07,  avg # of iterations =  8.0

     Expectation value of exp(iGx):  (1.57977909926507340E-005,-1.31807362086435281E-005)   1.0000000000000000     
     Electronic Dipole per cell (Ry a.u.)  -4.8864554073556592     
     Ionic Dipole per cell (Ry a.u.)   9289.0412334856428     

     Expectation value of exp(iGx):   (1.53287692422022197E-004,7.64347404745821432E-005)   1.0490058639940258     
     Electronic Dipole per cell (Ry a.u.)   3.4099142567164065     
     Ionic Dipole per cell (Ry a.u.)   15512.130366456693     

     Expectation value of exp(iGx):      (-0.55149919422116922,-1.26735917279553346E-002)   5.1595821521437895     
     Electronic Dipole per cell (Ry a.u.)  -113.07796904980383     
     Ionic Dipole per cell (Ry a.u.)   54330.804674140250     
Electronic Dipole on Cartesian axes
           1  -4.8864554073556592     
           2   3.4099142567164065     
           3  -113.07796904980383     
Ionic Dipole on Cartesian axes
           1   9289.0412334856428     
           2   15512.130366456693     
           3   54330.804674140250     

     total cpu time spent up to now is     3059.2 secs

     total energy              =   -2841.22250768 Ry
     estimated scf accuracy    <       0.00093671 Ry

     iteration #  8     ecut=    40.00 Ry     beta= 0.50
     Davidson diagonalization with overlap

---- Real-time Memory Report at c_bands before calling an iterative solver
           318 MiB given to the printing process from OS
           203 MiB allocation reported by mallinfo(arena+hblkhd)
        483101 MiB available memory on the node where the printing process lives
------------------
     ethr =  1.07E-07,  avg # of iterations =  7.0

     Expectation value of exp(iGx):  (1.56619994155629299E-005,-1.33190389375625916E-005)   1.0000000000000000     
     Electronic Dipole per cell (Ry a.u.)  -4.9524904818330349     
     Ionic Dipole per cell (Ry a.u.)   9289.0412334856428     

     Expectation value of exp(iGx):   (1.50780703950779277E-004,8.11743297422118533E-005)   1.0490058639940258     
     Electronic Dipole per cell (Ry a.u.)   3.6407070713511605     
     Ionic Dipole per cell (Ry a.u.)   15512.130366456693     

     Expectation value of exp(iGx):      (-0.55151353533102709,-1.07549713410178948E-002)   5.1595821521437895     
     Electronic Dipole per cell (Ry a.u.)  -113.20407256060227     
     Ionic Dipole per cell (Ry a.u.)   54330.804674140250     
Electronic Dipole on Cartesian axes
           1  -4.9524904818330349     
           2   3.6407070713511605     
           3  -113.20407256060227     
Ionic Dipole on Cartesian axes
           1   9289.0412334856428     
           2   15512.130366456693     
           3   54330.804674140250     

     total cpu time spent up to now is     3498.0 secs

     total energy              =   -2841.22264697 Ry
     estimated scf accuracy    <       0.00028666 Ry

     iteration #  9     ecut=    40.00 Ry     beta= 0.50
     Davidson diagonalization with overlap

---- Real-time Memory Report at c_bands before calling an iterative solver
           318 MiB given to the printing process from OS
           203 MiB allocation reported by mallinfo(arena+hblkhd)
        483035 MiB available memory on the node where the printing process lives
------------------
     ethr =  3.29E-08,  avg # of iterations =  6.0

     Expectation value of exp(iGx):  (1.57674550780688698E-005,-1.31971425453947359E-005)   1.0000000000000000     
     Electronic Dipole per cell (Ry a.u.)  -4.8974032429186565     
     Ionic Dipole per cell (Ry a.u.)   9289.0412334856428     

     Expectation value of exp(iGx):   (1.52502761835049172E-004,7.79539138299034217E-005)   1.0490058639940258     
     Electronic Dipole per cell (Ry a.u.)   3.4835088555526452     
     Ionic Dipole per cell (Ry a.u.)   15512.130366456693     

     Expectation value of exp(iGx):      (-0.55150085142904448,-1.15302404969245612E-002)   5.1595821521437895     
     Electronic Dipole per cell (Ry a.u.)  -113.15310620522705     
     Ionic Dipole per cell (Ry a.u.)   54330.804674140250     
Electronic Dipole on Cartesian axes
           1  -4.8974032429186565     
           2   3.4835088555526452     
           3  -113.15310620522703     
Ionic Dipole on Cartesian axes
           1   9289.0412334856428     
           2   15512.130366456693     
           3   54330.804674140250     

     total cpu time spent up to now is     3926.8 secs

     total energy              =   -2841.22269910 Ry
     estimated scf accuracy    <       0.00006736 Ry

     iteration # 10     ecut=    40.00 Ry     beta= 0.50
     Davidson diagonalization with overlap

---- Real-time Memory Report at c_bands before calling an iterative solver
           319 MiB given to the printing process from OS
           204 MiB allocation reported by mallinfo(arena+hblkhd)
        483081 MiB available memory on the node where the printing process lives
------------------
     ethr =  7.73E-09,  avg # of iterations =  6.0

     Expectation value of exp(iGx):  (1.57421098279340357E-005,-1.32572623603035571E-005)   1.0000000000000000     
     Electronic Dipole per cell (Ry a.u.)  -4.9187000760826631     
     Ionic Dipole per cell (Ry a.u.)   9289.0412334856428     

     Expectation value of exp(iGx):   (1.51830599087600805E-004,7.94969312757132961E-005)   1.0490058639940258     
     Electronic Dipole per cell (Ry a.u.)   3.5557676469642865     
     Ionic Dipole per cell (Ry a.u.)   15512.130366456693     

     Expectation value of exp(iGx):      (-0.55153589520411528,-1.14445701155796459E-002)   5.1595821521437895     
     Electronic Dipole per cell (Ry a.u.)  -113.15878404215917     
     Ionic Dipole per cell (Ry a.u.)   54330.804674140250     
Electronic Dipole on Cartesian axes
           1  -4.9187000760826631     
           2   3.5557676469642865     
           3  -113.15878404215918     
Ionic Dipole on Cartesian axes
           1   9289.0412334856428     
           2   15512.130366456693     
           3   54330.804674140250     

     total cpu time spent up to now is     4373.3 secs

     total energy              =   -2841.22271471 Ry
     estimated scf accuracy    <       0.00001168 Ry

     iteration # 11     ecut=    40.00 Ry     beta= 0.50
     Davidson diagonalization with overlap

---- Real-time Memory Report at c_bands before calling an iterative solver
           319 MiB given to the printing process from OS
           203 MiB allocation reported by mallinfo(arena+hblkhd)
        483146 MiB available memory on the node where the printing process lives
------------------
     ethr =  1.34E-09,  avg # of iterations =  6.0

     Expectation value of exp(iGx):  (1.57383833933782808E-005,-1.32648821969720144E-005)   1.0000000000000000     
     Electronic Dipole per cell (Ry a.u.)  -4.9215095882879423     
     Ionic Dipole per cell (Ry a.u.)   9289.0412334856428     

     Expectation value of exp(iGx):   (1.52018090117241571E-004,7.91433116321327892E-005)   1.0490058639940258     
     Electronic Dipole per cell (Ry a.u.)   3.5385517548732652     
     Ionic Dipole per cell (Ry a.u.)   15512.130366456693     

     Expectation value of exp(iGx):      (-0.55153846394558281,-1.13512396497178064E-002)   5.1595821521437895     
     Electronic Dipole per cell (Ry a.u.)  -113.16492061916253     
     Ionic Dipole per cell (Ry a.u.)   54330.804674140250     
Electronic Dipole on Cartesian axes
           1  -4.9215095882879423     
           2   3.5385517548732652     
           3  -113.16492061916253     
Ionic Dipole on Cartesian axes
           1   9289.0412334856428     
           2   15512.130366456693     
           3   54330.804674140250     

     total cpu time spent up to now is     4802.9 secs

     total energy              =   -2841.22271631 Ry
     estimated scf accuracy    <       0.00000267 Ry

     iteration # 12     ecut=    40.00 Ry     beta= 0.50
     Davidson diagonalization with overlap

---- Real-time Memory Report at c_bands before calling an iterative solver
           319 MiB given to the printing process from OS
           204 MiB allocation reported by mallinfo(arena+hblkhd)
        483095 MiB available memory on the node where the printing process lives
------------------
     ethr =  3.06E-10,  avg # of iterations =  5.0

     Expectation value of exp(iGx):  (1.57441550057428472E-005,-1.32546132417897856E-005)   1.0000000000000000     
     Electronic Dipole per cell (Ry a.u.)  -4.9175583266031291     
     Ionic Dipole per cell (Ry a.u.)   9289.0412334856428     

     Expectation value of exp(iGx):   (1.51974433161517565E-004,7.91965141195858171E-005)   1.0490058639940258     
     Electronic Dipole per cell (Ry a.u.)   3.5414489607025454     
     Ionic Dipole per cell (Ry a.u.)   15512.130366456693     

     Expectation value of exp(iGx):      (-0.55153420714334644,-1.13699610083372055E-002)   5.1595821521437895     
     Electronic Dipole per cell (Ry a.u.)  -113.16368460249561     
     Ionic Dipole per cell (Ry a.u.)   54330.804674140250     
Electronic Dipole on Cartesian axes
           1  -4.9175583266031291     
           2   3.5414489607025454     
           3  -113.16368460249561     
Ionic Dipole on Cartesian axes
           1   9289.0412334856428     
           2   15512.130366456693     
           3   54330.804674140250     

     total cpu time spent up to now is     5232.3 secs

     End of self-consistent calculation

          k = 0.0000 0.0000 0.0000 ( 88033 PWs)   bands (ev):

   -22.6678 -22.6388 -22.6121 -22.5701 -22.5674 -22.5542 -22.5012 -22.4531
   -21.4401 -21.3601 -21.3023 -21.2701 -21.2535 -21.1858 -21.1828 -21.1819
   -21.1088 -21.0971 -21.0770 -21.0662 -21.0519 -20.9925 -20.9819 -20.9491
   -16.8045 -16.7047 -16.6782 -16.5919 -16.5801 -16.5523 -16.5444 -16.4321
   -15.6484 -15.5953 -15.5806 -15.5622 -15.5283 -15.5061 -15.4610 -15.3919
   -15.3563 -15.2880 -15.2494 -15.1865 -14.9583 -14.9266 -14.9011 -14.8606
   -14.4795 -14.4599 -14.3825 -14.2860 -14.1960 -14.1460 -14.0865 -14.0474
   -13.5811 -13.4957 -13.3989 -13.3245 -13.3210 -13.2127 -13.1457 -13.1328
   -13.1035 -13.0603 -13.0349 -13.0240 -12.9946 -12.9739 -12.9617 -12.8690
   -12.7156 -12.6880 -12.6484 -12.5830 -12.5621 -12.5063 -12.4927 -12.4392
   -12.2785 -12.2368 -12.1597 -12.1433 -12.0594 -11.9813 -11.9327 -11.9054
   -11.7323 -11.6781 -11.6295 -11.6159 -11.5899 -11.5462 -11.4807 -11.4249
   -10.9521 -10.8377 -10.8172 -10.7511 -10.6602 -10.6248 -10.5663 -10.5420
   -10.5096 -10.4696 -10.4562 -10.4230 -10.3276 -10.2760 -10.2484 -10.1022
   -10.0818 -10.0646 -10.0420  -9.9346  -9.6094  -9.5759  -9.5536  -9.5156
    -9.3246  -9.3189  -9.2473  -9.2148  -9.1371  -9.1269  -9.0735  -9.0414
    -8.9799  -8.9495  -8.9186  -8.9058  -8.7389  -8.6840  -8.6530  -8.6210
    -8.6014  -8.5683  -8.5484  -8.5108  -8.4314  -8.4078  -8.3805  -8.3571
    -8.1439  -8.1124  -8.0989  -8.0845  -7.9034  -7.8796  -7.8475  -7.8290
    -7.7750  -7.7465  -7.7137  -7.6617  -7.6528  -7.6325  -7.5794  -7.5405
    -7.5205  -7.5008  -7.4511  -7.3629  -7.0402  -7.0017  -6.9814  -6.8060
    -6.6712  -6.6169  -6.5935  -6.5190  -6.5063  -6.4688  -6.4431  -6.4101
    -6.3732  -6.3481  -6.2931  -6.2434  -6.1856  -6.1682  -6.1353  -6.1284
    -6.0990  -6.0699  -6.0579  -6.0280  -5.9913  -5.9383  -5.9352  -5.8863
    -5.8359  -5.7961  -5.7776  -5.7394  -5.7251  -5.7080  -5.6550  -5.6477
    -5.5493  -5.5221  -5.4764  -5.4736  -5.4326  -5.4030  -5.3916  -5.3807
    -5.3587  -5.3306  -5.3201  -5.3036  -5.2774  -5.2547  -5.2407  -5.1904
    -5.1676  -5.1567  -5.1499  -5.1457  -5.1270  -5.0975  -5.0762  -5.0388
    -5.0361  -5.0303  -5.0030  -4.9783  -4.9759  -4.9552  -4.9323  -4.9224
    -4.8847  -4.8836  -4.8728  -4.8647  -4.8608  -4.8507  -4.8186  -4.7955
    -4.7503  -4.7331  -4.7042  -4.7016  -4.6651  -4.6335  -4.6106  -4.5842
    -4.5813  -4.5703  -4.5493  -4.5447  -4.5267  -4.5089  -4.4660  -4.4602
    -4.4534  -4.4034  -4.3844  -4.3499  -4.3372  -4.3342  -4.3199  -4.2895
    -4.2776  -4.2612  -4.2411  -4.2293  -4.2248  -4.1898  -4.1584  -4.1433
    -4.1347  -4.1019  -4.0962  -4.0889  -4.0718  -4.0384  -4.0246  -4.0213
    -3.9971  -3.9887  -3.9707  -3.9575  -3.9411  -3.9268  -3.8912  -3.8780
    -3.8657  -3.8560  -3.8124  -3.7986  -3.7693  -3.7481  -3.7379  -3.7280
    -3.7108  -3.6573  -3.6275  -3.6153  -3.5812  -3.5517  -3.5468  -3.4966
    -3.4783  -3.4380  -3.3796  -3.3626  -3.3579  -3.3460  -3.2954  -3.2604
    -3.1926  -3.1556  -3.0952  -3.0796  -3.0553  -3.0334  -2.9938  -2.9581
    -2.9343  -2.9019  -2.8933  -2.8805  -2.8649  -2.8495  -2.8376  -2.8110
    -2.7551  -2.7462  -2.7119  -2.7040  -2.6755  -2.6203  -2.5925  -2.5485
    -2.4995  -2.4909  -2.4655  -2.4421  -2.4052  -2.3875  -2.3653  -2.3324
    -2.3112  -2.2988  -2.2862  -2.2605  -2.2231  -2.2051  -2.1998  -2.1561
    -2.1214  -2.1039  -2.0949  -2.0548  -2.0366  -2.0157  -1.9916  -1.9752
    -1.9499  -1.9110  -1.9045  -1.8569  -1.8051  -1.7984  -1.6690  -1.6374
    -1.6178  -1.5498  -1.5029  -1.4863  -1.4645  -1.4510  -1.3947  -1.3809
    -1.0609  -1.0279  -1.0221  -0.8390  -0.8306  -0.8183  -0.7871  -0.7405
    -0.7317  -0.7081  -0.6876  -0.6802  -0.6549  -0.6319  -0.6308  -0.6122
    -0.6083  -0.5981  -0.5967  -0.5642  -0.5487  -0.5180  -0.5006  -0.4762
    -0.4538  -0.4085  -0.3855  -0.3353  -0.3124  -0.2386  -0.2177  -0.1658
    -0.1223  -0.1170  -0.0938  -0.0724  -0.0707  -0.0534  -0.0476  -0.0232
    -0.0135   0.0042   0.0478   0.0923   0.3977   0.4494   0.5969   0.6016
     0.6743   0.6884   0.7379   0.8019   0.8194   0.8609   0.9195   0.9347
     1.0594   1.0690   1.2580   1.4393

     occupation numbers 
     1.0000   1.0000   1.0000   1.0000   1.0000   1.0000   1.0000   1.0000
     1.0000   1.0000   1.0000   1.0000   1.0000   1.0000   1.0000   1.0000
     1.0000   1.0000   1.0000   1.0000   1.0000   1.0000   1.0000   1.0000
     1.0000   1.0000   1.0000   1.0000   1.0000   1.0000   1.0000   1.0000
     1.0000   1.0000   1.0000   1.0000   1.0000   1.0000   1.0000   1.0000
     1.0000   1.0000   1.0000   1.0000   1.0000   1.0000   1.0000   1.0000
     1.0000   1.0000   1.0000   1.0000   1.0000   1.0000   1.0000   1.0000
     1.0000   1.0000   1.0000   1.0000   1.0000   1.0000   1.0000   1.0000
     1.0000   1.0000   1.0000   1.0000   1.0000   1.0000   1.0000   1.0000
     1.0000   1.0000   1.0000   1.0000   1.0000   1.0000   1.0000   1.0000
     1.0000   1.0000   1.0000   1.0000   1.0000   1.0000   1.0000   1.0000
     1.0000   1.0000   1.0000   1.0000   1.0000   1.0000   1.0000   1.0000
     1.0000   1.0000   1.0000   1.0000   1.0000   1.0000   1.0000   1.0000
     1.0000   1.0000   1.0000   1.0000   1.0000   1.0000   1.0000   1.0000
     1.0000   1.0000   1.0000   1.0000   1.0000   1.0000   1.0000   1.0000
     1.0000   1.0000   1.0000   1.0000   1.0000   1.0000   1.0000   1.0000
     1.0000   1.0000   1.0000   1.0000   1.0000   1.0000   1.0000   1.0000
     1.0000   1.0000   1.0000   1.0000   1.0000   1.0000   1.0000   1.0000
     1.0000   1.0000   1.0000   1.0000   1.0000   1.0000   1.0000   1.0000
     1.0000   1.0000   1.0000   1.0000   1.0000   1.0000   1.0000   1.0000
     1.0000   1.0000   1.0000   1.0000   1.0000   1.0000   1.0000   1.0000
     1.0000   1.0000   1.0000   1.0000   1.0000   1.0000   1.0000   1.0000
     1.0000   1.0000   1.0000   1.0000   1.0000   1.0000   1.0000   1.0000
     1.0000   1.0000   1.0000   1.0000   1.0000   1.0000   1.0000   1.0000
     1.0000   1.0000   1.0000   1.0000   1.0000   1.0000   1.0000   1.0000
     1.0000   1.0000   1.0000   1.0000   1.0000   1.0000   1.0000   1.0000
     1.0000   1.0000   1.0000   1.0000   1.0000   1.0000   1.0000   1.0000
     1.0000   1.0000   1.0000   1.0000   1.0000   1.0000   1.0000   1.0000
     1.0000   1.0000   1.0000   1.0000   1.0000   1.0000   1.0000   1.0000
     1.0000   1.0000   1.0000   1.0000   1.0000   1.0000   1.0000   1.0000
     1.0000   1.0000   1.0000   1.0000   1.0000   1.0000   1.0000   1.0000
     1.0000   1.0000   1.0000   1.0000   1.0000   1.0000   1.0000   1.0000
     1.0000   1.0000   1.0000   1.0000   1.0000   1.0000   1.0000   1.0000
     1.0000   1.0000   1.0000   1.0000   1.0000   1.0000   1.0000   1.0000
     1.0000   1.0000   1.0000   1.0000   1.0000   1.0000   1.0000   1.0000
     1.0000   1.0000   1.0000   1.0000   1.0000   1.0000   1.0000   1.0000
     1.0000   1.0000   1.0000   1.0000   1.0000   1.0000   1.0000   1.0000
     1.0000   1.0000   1.0000   1.0000   1.0000   1.0000   1.0000   1.0000
     1.0000   1.0000   1.0000   1.0000   1.0000   1.0000   1.0000   1.0000
     1.0000   1.0000   1.0000   1.0000   1.0000   1.0000   1.0000   1.0000
     1.0000   1.0000   1.0000   1.0000   1.0000   1.0000   1.0000   1.0000
     1.0000   1.0000   1.0000   1.0000   1.0000   1.0000   1.0000   1.0000
     1.0000   1.0000   1.0000   1.0000   1.0000   1.0000   1.0000   1.0000
     1.0000   1.0000   1.0000   1.0000   1.0000   1.0000   1.0000   1.0000
[...]
   -21.4395 -21.3590 -21.3011 -21.2706 -21.2529 -21.1852 -21.1829 -21.1814
   -21.1076 -21.0968 -21.0769 -21.0666 -21.0519 -20.9923 -20.9815 -20.9490
   -16.7866 -16.7055 -16.6913 -16.6080 -16.5843 -16.5561 -16.5317 -16.4343
   -15.6332 -15.6062 -15.5787 -15.5552 -15.5357 -15.5184 -15.4601 -15.3970
   -15.3426 -15.2762 -15.2650 -15.1906 -14.9505 -14.9258 -14.8966 -14.8648
   -14.4724 -14.4540 -14.3756 -14.2814 -14.1818 -14.1610 -14.0829 -14.0547
   -13.5585 -13.5149 -13.3831 -13.3357 -13.3200 -13.2133 -13.1474 -13.1309
   -13.1033 -13.0628 -13.0304 -13.0205 -12.9912 -12.9708 -12.9582 -12.8656
   -12.6952 -12.6833 -12.6564 -12.5779 -12.5338 -12.5228 -12.5092 -12.4645
   -12.2659 -12.2500 -12.1595 -12.1450 -12.0449 -11.9824 -11.9394 -11.9120
   -11.7328 -11.6773 -11.6208 -11.6054 -11.5772 -11.5555 -11.4582 -11.4319
   -10.9512 -10.8277 -10.8207 -10.7530 -10.6433 -10.6223 -10.5583 -10.5327
   -10.5105 -10.4844 -10.4542 -10.4289 -10.3335 -10.2852 -10.2338 -10.0907
   -10.0747 -10.0612 -10.0392  -9.9259  -9.6167  -9.5894  -9.5535  -9.5186
    -9.3508  -9.3242  -9.2573  -9.2500  -9.1468  -9.1269  -9.0700  -9.0460
    -9.0094  -8.9482  -8.9198  -8.9005  -8.7279  -8.6943  -8.6658  -8.6415
    -8.6138  -8.5789  -8.5576  -8.5073  -8.4501  -8.4145  -8.3945  -8.3608
    -8.1472  -8.1406  -8.1100  -8.0773  -7.9142  -7.8908  -7.8251  -7.7849
    -7.7550  -7.7315  -7.7087  -7.6812  -7.6277  -7.6096  -7.5771  -7.5418
    -7.5082  -7.4735  -7.4604  -7.3483  -7.0439  -7.0220  -7.0085  -6.8401
    -6.6615  -6.6466  -6.5995  -6.5321  -6.4850  -6.4739  -6.4428  -6.4210
    -6.3771  -6.3312  -6.2860  -6.2320  -6.1845  -6.1604  -6.1277  -6.1000
    -6.0759  -6.0615  -6.0319  -6.0111  -6.0014  -5.9606  -5.9311  -5.8659
    -5.8429  -5.7976  -5.7692  -5.7462  -5.7320  -5.6814  -5.6328  -5.6249
    -5.5343  -5.5157  -5.4580  -5.4235  -5.4049  -5.3800  -5.3553  -5.3427
    -5.3310  -5.3203  -5.2966  -5.2851  -5.2748  -5.2439  -5.2253  -5.1864
    -5.1566  -5.1511  -5.1442  -5.1110  -5.0778  -5.0706  -5.0402  -5.0151
    -5.0135  -4.9842  -4.9782  -4.9582  -4.9549  -4.9381  -4.9250  -4.9107
    -4.8995  -4.8856  -4.8816  -4.8675  -4.8539  -4.8427  -4.8241  -4.8094
    -4.8001  -4.7898  -4.7852  -4.7341  -4.7280  -4.7212  -4.6941  -4.6723
    -4.6368  -4.6284  -4.6157  -4.5634  -4.5375  -4.5181  -4.4709  -4.4589
    -4.4390  -4.4344  -4.4031  -4.3994  -4.3388  -4.3196  -4.3179  -4.2753
    -4.2710  -4.2578  -4.2384  -4.2223  -4.2094  -4.1785  -4.1725  -4.1602
    -4.1410  -4.1209  -4.1083  -4.0815  -4.0655  -4.0356  -4.0165  -3.9954
    -3.9872  -3.9822  -3.9666  -3.9502  -3.9298  -3.9243  -3.9136  -3.8994
    -3.8811  -3.8344  -3.8243  -3.7766  -3.7715  -3.7261  -3.7064  -3.6913
    -3.6810  -3.6432  -3.6334  -3.6051  -3.5572  -3.5301  -3.5210  -3.4856
    -3.4753  -3.4374  -3.4222  -3.3735  -3.3407  -3.3310  -3.3121  -3.2675
    -3.1526  -3.1050  -3.0679  -3.0547  -3.0398  -2.9993  -2.9754  -2.9457
    -2.9243  -2.9020  -2.8804  -2.8671  -2.8506  -2.8419  -2.8067  -2.7977
    -2.7869  -2.7614  -2.7215  -2.6992  -2.6702  -2.6614  -2.6379  -2.6122
    -2.5703  -2.4996  -2.4596  -2.4437  -2.4240  -2.4016  -2.3684  -2.3647
    -2.3350  -2.3129  -2.2959  -2.2593  -2.2418  -2.2326  -2.1994  -2.1552
    -2.0903  -2.0812  -2.0672  -2.0476  -2.0221  -2.0060  -1.9615  -1.9420
    -1.9262  -1.8877  -1.8493  -1.7928  -1.7670  -1.7309  -1.7005  -1.6737
    -1.5919  -1.5710  -1.5521  -1.5096  -1.4849  -1.4685  -1.4087  -1.3909
    -1.0404  -0.9405  -0.8964  -0.8807  -0.8041  -0.7799  -0.7714  -0.7447
    -0.7248  -0.7054  -0.6928  -0.6835  -0.6728  -0.6412  -0.6381  -0.6088
    -0.6045  -0.5718  -0.5463  -0.5377  -0.5159  -0.4943  -0.4804  -0.4632
    -0.4114  -0.3831  -0.3471  -0.3169  -0.3014  -0.2668  -0.2311  -0.2170
    -0.1779  -0.1406  -0.1285  -0.1104  -0.0983  -0.0852  -0.0762  -0.0619
    -0.0451  -0.0393  -0.0059   0.0699   0.3767   0.4298   0.5864   0.6203
     0.6724   0.7119   0.7292   0.7902   0.8072   0.8271   0.8850   0.9130
     1.0446   1.1460   1.1955   1.3628

     occupation numbers 
     1.0000   1.0000   1.0000   1.0000   1.0000   1.0000   1.0000   1.0000
     1.0000   1.0000   1.0000   1.0000   1.0000   1.0000   1.0000   1.0000
     1.0000   1.0000   1.0000   1.0000   1.0000   1.0000   1.0000   1.0000
     1.0000   1.0000   1.0000   1.0000   1.0000   1.0000   1.0000   1.0000
     1.0000   1.0000   1.0000   1.0000   1.0000   1.0000   1.0000   1.0000
     1.0000   1.0000   1.0000   1.0000   1.0000   1.0000   1.0000   1.0000
     1.0000   1.0000   1.0000   1.0000   1.0000   1.0000   1.0000   1.0000
     1.0000   1.0000   1.0000   1.0000   1.0000   1.0000   1.0000   1.0000
     1.0000   1.0000   1.0000   1.0000   1.0000   1.0000   1.0000   1.0000
     1.0000   1.0000   1.0000   1.0000   1.0000   1.0000   1.0000   1.0000
     1.0000   1.0000   1.0000   1.0000   1.0000   1.0000   1.0000   1.0000
     1.0000   1.0000   1.0000   1.0000   1.0000   1.0000   1.0000   1.0000
     1.0000   1.0000   1.0000   1.0000   1.0000   1.0000   1.0000   1.0000
     1.0000   1.0000   1.0000   1.0000   1.0000   1.0000   1.0000   1.0000
     1.0000   1.0000   1.0000   1.0000   1.0000   1.0000   1.0000   1.0000
     1.0000   1.0000   1.0000   1.0000   1.0000   1.0000   1.0000   1.0000
     1.0000   1.0000   1.0000   1.0000   1.0000   1.0000   1.0000   1.0000
     1.0000   1.0000   1.0000   1.0000   1.0000   1.0000   1.0000   1.0000
     1.0000   1.0000   1.0000   1.0000   1.0000   1.0000   1.0000   1.0000
     1.0000   1.0000   1.0000   1.0000   1.0000   1.0000   1.0000   1.0000
     1.0000   1.0000   1.0000   1.0000   1.0000   1.0000   1.0000   1.0000
     1.0000   1.0000   1.0000   1.0000   1.0000   1.0000   1.0000   1.0000
     1.0000   1.0000   1.0000   1.0000   1.0000   1.0000   1.0000   1.0000
     1.0000   1.0000   1.0000   1.0000   1.0000   1.0000   1.0000   1.0000
     1.0000   1.0000   1.0000   1.0000   1.0000   1.0000   1.0000   1.0000
     1.0000   1.0000   1.0000   1.0000   1.0000   1.0000   1.0000   1.0000
     1.0000   1.0000   1.0000   1.0000   1.0000   1.0000   1.0000   1.0000
     1.0000   1.0000   1.0000   1.0000   1.0000   1.0000   1.0000   1.0000
     1.0000   1.0000   1.0000   1.0000   1.0000   1.0000   1.0000   1.0000
     1.0000   1.0000   1.0000   1.0000   1.0000   1.0000   1.0000   1.0000
     1.0000   1.0000   1.0000   1.0000   1.0000   1.0000   1.0000   1.0000
     1.0000   1.0000   1.0000   1.0000   1.0000   1.0000   1.0000   1.0000
     1.0000   1.0000   1.0000   1.0000   1.0000   1.0000   1.0000   1.0000
     1.0000   1.0000   1.0000   1.0000   1.0000   1.0000   1.0000   1.0000
     1.0000   1.0000   1.0000   1.0000   1.0000   1.0000   1.0000   1.0000
     1.0000   1.0000   1.0000   1.0000   1.0000   1.0000   1.0000   1.0000
     1.0000   1.0000   1.0000   1.0000   1.0000   1.0000   1.0000   1.0000
     1.0000   1.0000   1.0000   1.0000   1.0000   1.0000   1.0000   1.0000
     1.0000   1.0000   1.0000   1.0000   1.0000   1.0000   1.0000   1.0000
     1.0000   1.0000   1.0000   1.0000   1.0000   1.0000   1.0000   1.0000
     1.0000   1.0000   1.0000   1.0000   1.0000   1.0000   1.0000   1.0000
     1.0000   1.0000   1.0000   1.0000   1.0000   1.0000   1.0000   1.0000
     1.0000   1.0000   1.0000   1.0000   1.0000   1.0000   1.0000   1.0000
     1.0000   1.0000   1.0000   1.0000   1.0000   1.0000   1.0000   1.0000
     1.0000   1.0000   1.0000   1.0000   1.0000   1.0000   1.0000   1.0000
     1.0000   1.0000   1.0000   1.0000   1.0000   1.0000   1.0000   1.0000
     1.0000   1.0000   1.0000   1.0000   1.0000   1.0000   1.0000   1.0000
     1.0000   1.0000   1.0000   1.0000   1.0000   1.0000   1.0000   1.0000
     1.0000   1.0000   1.0000   1.0000   1.0000   1.0000   1.0000   1.0000
     1.0000   1.0000   1.0000   1.0000   1.0000   1.0000   1.0000   1.0000
     1.0000   1.0000   1.0000   1.0000   1.0000   1.0000   1.0000   1.0000
     1.0000   1.0000   1.0000   1.0000   1.0000   1.0000   1.0000   1.0000
     1.0000   1.0000   1.0000   1.0000   1.0000   1.0000   1.0000   1.0000
     1.0000   1.0000   1.0000   1.0000   1.0000   1.0000   1.0000   1.0000
     1.0000   1.0000   1.0000   1.0000

          k = 0.6667 0.6355 0.0969 ( 87978 PWs)   bands (ev):

   -22.6675 -22.6389 -22.6119 -22.5698 -22.5670 -22.5541 -22.5012 -22.4530
   -21.4397 -21.3591 -21.3012 -21.2708 -21.2530 -21.1854 -21.1829 -21.1815
   -21.1078 -21.0969 -21.0771 -21.0667 -21.0520 -20.9924 -20.9816 -20.9491
   -16.7869 -16.7057 -16.6915 -16.6081 -16.5844 -16.5561 -16.5320 -16.4345
   -15.6332 -15.6061 -15.5790 -15.5587 -15.5323 -15.5158 -15.4644 -15.3977
   -15.3394 -15.2758 -15.2658 -15.1933 -14.9453 -14.9210 -14.9028 -14.8693
   -14.4669 -14.4338 -14.4054 -14.2960 -14.1540 -14.1232 -14.1135 -14.0743
   -13.5284 -13.5000 -13.4614 -13.3575 -13.2440 -13.1919 -13.1753 -13.1324
   -13.1185 -13.0608 -13.0383 -13.0133 -12.9912 -12.9708 -12.9577 -12.8663
   -12.6934 -12.6848 -12.6565 -12.5775 -12.5343 -12.5191 -12.5134 -12.4629
   -12.2579 -12.2357 -12.1910 -12.1600 -12.0260 -11.9634 -11.9405 -11.9222
   -11.7255 -11.6670 -11.6575 -11.6435 -11.5423 -11.5129 -11.4784 -11.4392
   -10.9512 -10.8277 -10.8210 -10.7531 -10.6448 -10.6213 -10.5650 -10.5230
   -10.5123 -10.4865 -10.4517 -10.4327 -10.3345 -10.2856 -10.2346 -10.0903
   -10.0753 -10.0605 -10.0399  -9.9264  -9.6075  -9.5849  -9.5589  -9.5393
    -9.3272  -9.3001  -9.2840  -9.2633  -9.1487  -9.1279  -9.0709  -9.0424
    -9.0086  -8.9477  -8.9164  -8.9038  -8.7279  -8.6855  -8.6688  -8.6464
    -8.6329  -8.5582  -8.5491  -8.5221  -8.4547  -8.4033  -8.3929  -8.3707
    -8.1522  -8.1381  -8.1112  -8.0723  -7.9212  -7.8649  -7.8355  -7.7947
    -7.7771  -7.7328  -7.7009  -7.6713  -7.6195  -7.6040  -7.5825  -7.5488
    -7.5066  -7.4765  -7.4592  -7.3498  -7.0440  -7.0230  -7.0089  -6.8416
    -6.6554  -6.6257  -6.6094  -6.5698  -6.4895  -6.4622  -6.4453  -6.3961
    -6.3680  -6.3382  -6.2959  -6.2492  -6.1710  -6.1644  -6.1190  -6.1037
    -6.0776  -6.0631  -6.0248  -6.0135  -6.0047  -5.9673  -5.9283  -5.8632
    -5.8422  -5.7993  -5.7705  -5.7446  -5.7358  -5.6805  -5.6345  -5.6238
    -5.5351  -5.5161  -5.4579  -5.4217  -5.4102  -5.3744  -5.3554  -5.3472
    -5.3296  -5.3205  -5.3047  -5.2823  -5.2771  -5.2336  -5.2267  -5.1879
    -5.1590  -5.1545  -5.1432  -5.1127  -5.0815  -5.0649  -5.0412  -5.0195
    -5.0094  -4.9845  -4.9766  -4.9630  -4.9528  -4.9426  -4.9267  -4.9061
    -4.8992  -4.8904  -4.8769  -4.8668  -4.8613  -4.8378  -4.8246  -4.8049
    -4.8017  -4.7926  -4.7873  -4.7350  -4.7284  -4.7229  -4.6937  -4.6723
    -4.6373  -4.6287  -4.6161  -4.5634  -4.5379  -4.5188  -4.4721  -4.4596
    -4.4406  -4.4330  -4.4054  -4.3978  -4.3389  -4.3206  -4.3177  -4.2766
    -4.2683  -4.2595  -4.2397  -4.2226  -4.2085  -4.1832  -4.1718  -4.1604
    -4.1385  -4.1215  -4.1103  -4.0785  -4.0663  -4.0343  -4.0215  -3.9959
    -3.9887  -3.9828  -3.9677  -3.9471  -3.9317  -3.9220  -3.9151  -3.8977
    -3.8818  -3.8348  -3.8255  -3.7785  -3.7705  -3.7267  -3.7054  -3.6938
    -3.6800  -3.6450  -3.6324  -3.6060  -3.5579  -3.5294  -3.5221  -3.4869
    -3.4749  -3.4356  -3.4245  -3.3742  -3.3405  -3.3315  -3.3123  -3.2678
    -3.1532  -3.1049  -3.0686  -3.0535  -3.0406  -3.0032  -2.9732  -2.9463
    -2.9234  -2.9036  -2.8811  -2.8637  -2.8590  -2.8309  -2.8156  -2.7972
    -2.7902  -2.7574  -2.7203  -2.6965  -2.6802  -2.6584  -2.6343  -2.6175
    -2.5713  -2.4874  -2.4687  -2.4503  -2.4232  -2.3953  -2.3723  -2.3653
    -2.3334  -2.3155  -2.2940  -2.2630  -2.2417  -2.2320  -2.2002  -2.1548
    -2.0913  -2.0809  -2.0656  -2.0496  -2.0230  -2.0057  -1.9625  -1.9420
    -1.9262  -1.8879  -1.8495  -1.7945  -1.7660  -1.7318  -1.7004  -1.6746
    -1.5925  -1.5707  -1.5537  -1.5096  -1.4849  -1.4692  -1.4090  -1.3909
    -1.0412  -0.9407  -0.8972  -0.8814  -0.8044  -0.7802  -0.7721  -0.7451
    -0.7250  -0.7054  -0.6941  -0.6837  -0.6735  -0.6411  -0.6382  -0.6098
    -0.6048  -0.5724  -0.5485  -0.5330  -0.5213  -0.4935  -0.4814  -0.4630
    -0.4121  -0.3833  -0.3471  -0.3176  -0.3015  -0.2671  -0.2316  -0.2175
    -0.1786  -0.1409  -0.1293  -0.1119  -0.0992  -0.0863  -0.0762  -0.0630
    -0.0457  -0.0398  -0.0069   0.0696   0.3767   0.4292   0.5872   0.6184
     0.6738   0.7096   0.7306   0.7923   0.8020   0.8286   0.8854   0.9124
     1.0440   1.1460   1.1952   1.3624

     occupation numbers 
     1.0000   1.0000   1.0000   1.0000   1.0000   1.0000   1.0000   1.0000
     1.0000   1.0000   1.0000   1.0000   1.0000   1.0000   1.0000   1.0000
     1.0000   1.0000   1.0000   1.0000   1.0000   1.0000   1.0000   1.0000
     1.0000   1.0000   1.0000   1.0000   1.0000   1.0000   1.0000   1.0000
     1.0000   1.0000   1.0000   1.0000   1.0000   1.0000   1.0000   1.0000
     1.0000   1.0000   1.0000   1.0000   1.0000   1.0000   1.0000   1.0000
     1.0000   1.0000   1.0000   1.0000   1.0000   1.0000   1.0000   1.0000
     1.0000   1.0000   1.0000   1.0000   1.0000   1.0000   1.0000   1.0000
     1.0000   1.0000   1.0000   1.0000   1.0000   1.0000   1.0000   1.0000
     1.0000   1.0000   1.0000   1.0000   1.0000   1.0000   1.0000   1.0000
     1.0000   1.0000   1.0000   1.0000   1.0000   1.0000   1.0000   1.0000
     1.0000   1.0000   1.0000   1.0000   1.0000   1.0000   1.0000   1.0000
     1.0000   1.0000   1.0000   1.0000   1.0000   1.0000   1.0000   1.0000
     1.0000   1.0000   1.0000   1.0000   1.0000   1.0000   1.0000   1.0000
     1.0000   1.0000   1.0000   1.0000   1.0000   1.0000   1.0000   1.0000
     1.0000   1.0000   1.0000   1.0000   1.0000   1.0000   1.0000   1.0000
     1.0000   1.0000   1.0000   1.0000   1.0000   1.0000   1.0000   1.0000
     1.0000   1.0000   1.0000   1.0000   1.0000   1.0000   1.0000   1.0000
     1.0000   1.0000   1.0000   1.0000   1.0000   1.0000   1.0000   1.0000
     1.0000   1.0000   1.0000   1.0000   1.0000   1.0000   1.0000   1.0000
     1.0000   1.0000   1.0000   1.0000   1.0000   1.0000   1.0000   1.0000
     1.0000   1.0000   1.0000   1.0000   1.0000   1.0000   1.0000   1.0000
     1.0000   1.0000   1.0000   1.0000   1.0000   1.0000   1.0000   1.0000
     1.0000   1.0000   1.0000   1.0000   1.0000   1.0000   1.0000   1.0000
     1.0000   1.0000   1.0000   1.0000   1.0000   1.0000   1.0000   1.0000
     1.0000   1.0000   1.0000   1.0000   1.0000   1.0000   1.0000   1.0000
     1.0000   1.0000   1.0000   1.0000   1.0000   1.0000   1.0000   1.0000
     1.0000   1.0000   1.0000   1.0000   1.0000   1.0000   1.0000   1.0000
     1.0000   1.0000   1.0000   1.0000   1.0000   1.0000   1.0000   1.0000
     1.0000   1.0000   1.0000   1.0000   1.0000   1.0000   1.0000   1.0000
     1.0000   1.0000   1.0000   1.0000   1.0000   1.0000   1.0000   1.0000
     1.0000   1.0000   1.0000   1.0000   1.0000   1.0000   1.0000   1.0000
     1.0000   1.0000   1.0000   1.0000   1.0000   1.0000   1.0000   1.0000
     1.0000   1.0000   1.0000   1.0000   1.0000   1.0000   1.0000   1.0000
     1.0000   1.0000   1.0000   1.0000   1.0000   1.0000   1.0000   1.0000
     1.0000   1.0000   1.0000   1.0000   1.0000   1.0000   1.0000   1.0000
     1.0000   1.0000   1.0000   1.0000   1.0000   1.0000   1.0000   1.0000
     1.0000   1.0000   1.0000   1.0000   1.0000   1.0000   1.0000   1.0000
     1.0000   1.0000   1.0000   1.0000   1.0000   1.0000   1.0000   1.0000
     1.0000   1.0000   1.0000   1.0000   1.0000   1.0000   1.0000   1.0000
     1.0000   1.0000   1.0000   1.0000   1.0000   1.0000   1.0000   1.0000
     1.0000   1.0000   1.0000   1.0000   1.0000   1.0000   1.0000   1.0000
     1.0000   1.0000   1.0000   1.0000   1.0000   1.0000   1.0000   1.0000
     1.0000   1.0000   1.0000   1.0000   1.0000   1.0000   1.0000   1.0000
     1.0000   1.0000   1.0000   1.0000   1.0000   1.0000   1.0000   1.0000
     1.0000   1.0000   1.0000   1.0000   1.0000   1.0000   1.0000   1.0000
     1.0000   1.0000   1.0000   1.0000   1.0000   1.0000   1.0000   1.0000
     1.0000   1.0000   1.0000   1.0000   1.0000   1.0000   1.0000   1.0000
     1.0000   1.0000   1.0000   1.0000   1.0000   1.0000   1.0000   1.0000
     1.0000   1.0000   1.0000   1.0000   1.0000   1.0000   1.0000   1.0000
     1.0000   1.0000   1.0000   1.0000   1.0000   1.0000   1.0000   1.0000
     1.0000   1.0000   1.0000   1.0000   1.0000   1.0000   1.0000   1.0000
     1.0000   1.0000   1.0000   1.0000   1.0000   1.0000   1.0000   1.0000
     1.0000   1.0000   1.0000   1.0000   1.0000   1.0000   1.0000   1.0000
     1.0000   1.0000   1.0000   1.0000

     highest occupied level (ev):     1.4393

!    total energy              =   -2841.22271674 Ry
     estimated scf accuracy    <       0.00000034 Ry

     The total energy is the sum of the following terms:
     one-electron contribution =   -3118.52058703 Ry
     hartree contribution      =    1860.00156935 Ry
     xc contribution           =    -937.83174432 Ry
     ewald contribution        =    -644.87195474 Ry

     convergence has been achieved in  12 iterations

     Writing all to output data dir ./tmp/PEI.save/ :
     XML data file, charge density, pseudopotentials, collected wavefunctions

     init_run     :     33.86s CPU     44.39s WALL (       1 calls)
     electrons    :   4952.74s CPU   5187.90s WALL (       1 calls)

     Called by init_run:
     wfcinit      :     32.43s CPU     42.89s WALL (       1 calls)
     wfcinit:atom :      0.07s CPU      0.09s WALL (      18 calls)
     wfcinit:wfcr :     31.73s CPU     41.70s WALL (      18 calls)
     potinit      :      0.01s CPU      0.02s WALL (       1 calls)
     hinit0       :      0.89s CPU      0.90s WALL (       1 calls)

     Called by electrons:
     c_bands      :   1119.46s CPU   1323.16s WALL (      12 calls)
     sum_band     :     21.68s CPU     50.53s WALL (      12 calls)
     v_of_rho     :      0.10s CPU      0.14s WALL (      13 calls)
     v_h          :      0.01s CPU      0.01s WALL (      13 calls)
     v_xc         :      0.09s CPU      0.12s WALL (      13 calls)
     mix_rho      :      0.02s CPU      0.03s WALL (      12 calls)

     Called by c_bands:
     init_us_2    :      7.69s CPU      7.70s WALL (     450 calls)
     cegterg      :   1109.65s CPU   1313.11s WALL (     216 calls)

     Called by sum_band:
     sum_band:wei :      0.00s CPU      0.00s WALL (      12 calls)
     sum_band:loo :     21.66s CPU     50.50s WALL (      12 calls)
     sum_band:buf :      0.51s CPU      0.52s WALL (     216 calls)
     sum_band:ini :      3.55s CPU      3.55s WALL (     216 calls)

     Called by *egterg:
     cdiaghg      :    704.57s CPU    745.63s WALL (    1440 calls)
     cegterg:over :     48.58s CPU     49.60s WALL (    1224 calls)
     cegterg:upda :     25.26s CPU     25.56s WALL (    1224 calls)
     cegterg:last :     37.95s CPU     38.35s WALL (     458 calls)
     cdiaghg:chol :     16.23s CPU     16.43s WALL (    1440 calls)
     cdiaghg:inve :      3.62s CPU      3.76s WALL (    1440 calls)
     cdiaghg:para :     49.83s CPU     49.95s WALL (    2880 calls)
     h_psi        :    308.00s CPU    478.12s WALL (    1458 calls)
     g_psi        :      0.27s CPU      0.30s WALL (    1224 calls)

     Called by h_psi:
     h_psi:calbec :    129.30s CPU    129.32s WALL (    1458 calls)
     vloc_psi     :    103.24s CPU    273.04s WALL (    1458 calls)
     add_vuspsi   :     74.37s CPU     74.64s WALL (    1458 calls)

     General routines
     calbec       :    129.29s CPU    129.31s WALL (    1458 calls)
     fft          :      0.95s CPU      1.00s WALL (     130 calls)
     ffts         :      0.01s CPU      0.01s WALL (      12 calls)
     fftw         :    115.83s CPU    313.84s WALL (  650878 calls)

     Parallel routines

     Electric-field routines
     c_phase_fiel :   3811.41s CPU   3813.16s WALL (      36 calls)

     PWSCF        :      1h23m CPU      1h28m WALL


   This run was terminated on:  16:27:49  29Oct2024            

=------------------------------------------------------------------------------=
   JOB DONE.
=------------------------------------------------------------------------------=
