
     Program PWSCF v.7.4 starts on 30Oct2024 at 19: 4:33 
        Git branch: develop
        Last git commit: 6e083f7950e599a1a6788f0638610f88c1613670
        Last git commit date: Mon Oct 21 09:56:42 2024 +0000
        Last git commit subject: Merge branch 'features/magnetic_symmetry_method2' 

     This program is part of the open-source Quantum ESPRESSO suite
     for quantum simulation of materials; please cite
         "P. Giannozzi et al., J. Phys.:Condens. Matter 21 395502 (2009);
         "P. Giannozzi et al., J. Phys.:Condens. Matter 29 465901 (2017);
         "P. Giannozzi et al., J. Chem. Phys. 152 154105 (2020);
          URL http://www.quantum-espresso.org", 
     in publications or presentations arising from this work. More details at
     http://www.quantum-espresso.org/quote

     Parallel version (MPI), running on   224 processors

     MPI processes distributed on     4 nodes
     490116 MiB available memory on the printing compute node when the environment starts

     Waiting for input...
     Reading input from standard input

     Current dimensions of program PWSCF are:
     Max number of different atomic species (ntypx) = 10
     Max number of k-points (npk) =  40000
     Max angular momentum in pseudopotentials (lmaxx) =  4

     R & G space division:  proc/nbgrp/npool/nimage =     224
     Subspace diagonalization in iterative solution of the eigenvalue problem:
     one sub-group per band group will be used
     custom distributed-memory algorithm (size of sub-group:  4*  4 procs)


     Parallelization info
     --------------------
     sticks:   dense  smooth     PW     G-vecs:    dense   smooth      PW
     Min          14      14      4                 3120     3120     444
     Max          15      15      5                 3167     3167     476
     Sum        3247    3247    911               703707   703707  104481

     Using Slab Decomposition



     bravais-lattice index     =            0
     lattice parameter (alat)  =      15.6112  a.u.
     unit-cell volume          =   20592.1448 (a.u.)^3
     number of atoms/cell      =          276
     number of atomic types    =            4
     number of electrons       =       872.00
     number of Kohn-Sham states=          436
     kinetic-energy cutoff     =      40.0000  Ry
     charge density cutoff     =     160.0000  Ry
     scf convergence threshold =      1.0E-06
     mixing beta               =       0.5000
     number of iterations used =            8  plain     mixing
     Exchange-correlation= PBE
                           (   1   4   3   4   0   0   0)

     Using Berry phase electric field
     In a.u.(Ry)  cartesian system of reference
        0.0000000000
        0.0000000000
        0.0010000000
     In a.u.(Ry)  crystal system of reference
        0.0000000000
        0.0000000000
        0.0010000000
     Number of iterative cycles:   3


     celldm(1)=  15.611203  celldm(2)=   0.000000  celldm(3)=   0.000000
     celldm(4)=   0.000000  celldm(5)=   0.000000  celldm(6)=   0.000000

     crystal axes: (cart. coord. in units of alat)
               a(1) = (   1.000000   0.000000   0.000000 )  
               a(2) = (   0.000000   1.049006   0.000000 )  
               a(3) = (   0.000000   0.000000   5.159582 )  

     reciprocal axes: (cart. coord. in units 2 pi/alat)
               b(1) = (  1.000000  0.000000  0.000000 )  
               b(2) = (  0.000000  0.953284  0.000000 )  
               b(3) = (  0.000000  0.000000  0.193814 )  


     PseudoPot. # 1 for C  read from file:
     ./C_ONCV_PBE_sr.upf
     MD5 check sum: be7deea5c8a9eeec940f0cd39a542f08
     Pseudo is Norm-conserving + core correction, Zval =  4.0
     Generated using ONCVPSP code by D. R. Hamann
     Using radial grid of 1248 points,  4 beta functions with: 
                l(1) =   0
                l(2) =   0
                l(3) =   1
                l(4) =   1

     PseudoPot. # 2 for N  read from file:
     ./N_ONCV_PBE_sr.upf
     MD5 check sum: 18c6af81dac9c5a2d6d52ed11cf7bfee
     Pseudo is Norm-conserving + core correction, Zval =  5.0
     Generated using ONCVPSP code by D. R. Hamann
     Using radial grid of 1058 points,  4 beta functions with: 
                l(1) =   0
                l(2) =   0
                l(3) =   1
                l(4) =   1

     PseudoPot. # 3 for H  read from file:
     ./H_ONCV_PBE_sr.upf
     MD5 check sum: 31ee981bebb029a36324f200b357dac4
     Pseudo is Norm-conserving, Zval =  1.0
     Generated using ONCVPSP code by D. R. Hamann
     Using radial grid of 1166 points,  3 beta functions with: 
                l(1) =   0
                l(2) =   0
                l(3) =   1

     PseudoPot. # 4 for O  read from file:
     ./O_ONCV_PBE_sr.upf
     MD5 check sum: b0122293cc47a814ad0627188f9a6d95
     Pseudo is Norm-conserving + core correction, Zval =  6.0
     Generated using ONCVPSP code by D. R. Hamann
     Using radial grid of  936 points,  5 beta functions with: 
                l(1) =   0
                l(2) =   0
                l(3) =   1
                l(4) =   1
                l(5) =   2

     atomic species   valence    mass     pseudopotential
     C                 4.00    12.01070     C ( 1.00)
     N                 5.00    14.00670     N ( 1.00)
     H                 1.00     1.00794     H ( 1.00)
     O                 6.00    15.99900     O ( 1.00)

     No symmetry found


                                    s                        frac. trans.

      isym =  1     identity                                     

 cryst.   s( 1) = (     1          0          0      )
                  (     0          1          0      )
                  (     0          0          1      )

 cart.    s( 1) = (  1.0000000  0.0000000  0.0000000 )
                  (  0.0000000  1.0000000  0.0000000 )
                  (  0.0000000  0.0000000  1.0000000 )


   Cartesian axes

     site n.     atom                  positions (alat units)
         1        H      tau(   1) = (   0.4764639   0.0061428   0.2827054  )
         2        C      tau(   2) = (   0.5032714  -0.0806930   0.3784653  )
         3        C      tau(   3) = (   0.5320111  -0.2497535   0.3376288  )
         4        H      tau(   4) = (   0.6840542  -0.1571422   1.0700925  )
         5        H      tau(   5) = (   0.4916543   0.1019978   0.5647667  )
         6        H      tau(   6) = (   0.7316891   0.1086382   0.9643389  )
         7        C      tau(   7) = (   0.5114709  -0.0261464   0.5392857  )
         8        C      tau(   8) = (   0.5667493  -0.3614609   0.4701415  )
         9        H      tau(   9) = (   0.5880241  -0.4895327   0.4439420  )
        10        C      tau(  10) = (   0.5487308  -0.1363195   0.6718587  )
        11        C      tau(  11) = (   0.6484171  -0.2061412   0.9500438  )
        12        C      tau(  12) = (   0.5743127  -0.3060035   0.6303065  )
        13        H      tau(  13) = (   0.5656351  -0.3101495   0.9709939  )
        14        C      tau(  14) = (   0.6942816   0.0768674   0.8390109  )
        15        H      tau(  15) = (   0.7601200  -0.2542188   0.8918862  )
        16        H      tau(  16) = (   0.6007761  -0.3942959   0.7250587  )
        17        C      tau(  17) = (   0.5657802  -0.0694510   0.8387084  )
        18        H      tau(  18) = (   0.8063115   0.0444906   0.7721418  )
        19        H      tau(  19) = (   0.6426249   0.1872175   0.7825212  )
        20        C      tau(  20) = (   0.4119693  -0.0112222   0.9148263  )
        21        H      tau(  21) = (   0.2550744  -0.1833761   0.7865607  )
        22        H      tau(  22) = (   0.5142097   0.1889113   1.0607790  )
        23        C      tau(  23) = (   0.2583581  -0.0889451   0.8783168  )
        24        C      tau(  24) = (   0.4048010   0.1211484   1.0309282  )
        25        C      tau(  25) = (   0.1148806  -0.0501879   0.9622148  )
        26        C      tau(  26) = (   0.2599146   0.1674379   1.1078287  )
        27        H      tau(  27) = (   0.0047821  -0.1189387   0.9370500  )
        28        H      tau(  28) = (   0.2607729   0.2713082   1.1898170  )
        29        C      tau(  29) = (   0.1118181   0.0762190   1.0839976  )
        30        O      tau(  30) = (  -0.0254995   0.0997563   1.1687026  )
        31        H      tau(  31) = (   0.2305001   0.1077432   1.3886493  )
        32        C      tau(  32) = (  -0.0232197   0.1586928   1.3204644  )
        33        C      tau(  33) = (   0.1213475   0.1751941   1.4200892  )
        34        H      tau(  34) = (  -0.2857132   0.2008411   1.3152773  )
        35        C      tau(  35) = (  -0.1729079   0.2247153   1.3798902  )
        36        C      tau(  36) = (   0.1276263   0.2776363   1.5557392  )
        37        H      tau(  37) = (   0.2405844   0.2920017   1.6231750  )
        38        C      tau(  38) = (  -0.1731658   0.3238098   1.5214752  )
        39        C      tau(  39) = (  -0.0163604   0.3607989   1.6087713  )
        40        C      tau(  40) = (  -0.3115053   0.4078339   1.6131793  )
        41        O      tau(  41) = (  -0.4490307   0.4031626   1.5724537  )
        42        C      tau(  42) = (  -0.0478352   0.4746267   1.7509171  )
        43        N      tau(  43) = (  -0.2355136   0.5017296   1.7608240  )
        44        O      tau(  44) = (   0.0541684   0.5318437   1.8347726  )
        45        H      tau(  45) = (  -0.5642094   0.5076777   1.8111272  )
        46        C      tau(  46) = (  -0.3259360   0.5995912   1.8822120  )
        47        C      tau(  47) = (  -0.4993948   0.5904953   1.8904281  )
        48        H      tau(  48) = (  -0.1211360   0.7231489   1.9915347  )
        49        C      tau(  49) = (  -0.2530163   0.7106704   1.9941049  )
        50        C      tau(  50) = (  -0.5918344   0.6870095   1.9992911  )
        51        H      tau(  51) = (  -0.7243999   0.6787076   2.0004882  )
        52        C      tau(  52) = (  -0.3379853   0.8114691   2.1070818  )
        53        C      tau(  53) = (  -0.5117055   0.7947580   2.1064429  )
        54        O      tau(  54) = (  -0.4954642   1.0156779   2.3827731  )
        55        N      tau(  55) = (  -0.2599230   0.9293751   2.2176598  )
        56        H      tau(  56) = (  -0.5864137   0.8668774   2.1878880  )
        57        C      tau(  57) = (  -0.3544773   1.0188726   2.3537279  )
        58        O      tau(  58) = (   0.0409654   0.9127920   2.1760299  )
        59        C      tau(  59) = (  -0.0715489   0.9653212   2.2473351  )
        60        C      tau(  60) = (  -0.2303158   1.1102560   2.4567069  )
        61        C      tau(  61) = (  -0.0613656   1.0795863   2.3924999  )
        62        H      tau(  62) = (  -0.3825649   1.2352004   2.6368404  )
        63        C      tau(  63) = (  -0.2591007   1.2136635   2.5938612  )
        64        C      tau(  64) = (   0.0695673   1.1611529   2.4718791  )
        65        H      tau(  65) = (   0.1931190   1.1482620   2.4262685  )
        66        C      tau(  66) = (  -0.1245654   1.2856394   2.6707959  )
        67        C      tau(  67) = (   0.0380013   1.2606799   2.6093281  )
        68        H      tau(  68) = (  -0.1452495   1.3620465   2.7766764  )
        69        H      tau(  69) = (   0.2770889   1.0369710   2.6531361  )
        70        O      tau(  70) = (   0.1546425   1.3529662   2.6827540  )
        71        C      tau(  71) = (   0.3294743   1.1172272   2.7437020  )
        72        C      tau(  72) = (   0.2839083   1.2875071   2.7517134  )
        73        H      tau(  73) = (   0.4620044   0.9233482   2.8502026  )
        74        H      tau(  74) = (   0.5642083   0.8045700   3.0474273  )
        75        H      tau(  75) = (   0.8772706   1.1006304   3.2056877  )
        76        C      tau(  76) = (   0.4374634   1.0530291   2.8568496  )
        77        C      tau(  77) = (   0.3680287   1.3897170   2.8693836  )
        78        H      tau(  78) = (   0.3393126   1.5188701   2.8746743  )
        79        C      tau(  79) = (   0.6715554   0.8857306   3.0459388  )
        80        C      tau(  80) = (   0.5170526   1.1499130   2.9817539  )
        81        C      tau(  81) = (   0.7974476   1.1530704   3.1106979  )
        82        H      tau(  82) = (   0.7228264   0.8871319   2.9213468  )
        83        C      tau(  83) = (   0.4784816   1.3225967   2.9782575  )
        84        H      tau(  84) = (   0.8619833   1.1411961   2.9932232  )
        85        H      tau(  85) = (   0.7646497   0.8276576   3.1239285  )
        86        H      tau(  86) = (   0.7844342   1.2838442   3.1361589  )
        87        C      tau(  87) = (   0.6280048   1.0659277   3.1056068  )
        88        H      tau(  88) = (   0.5355467   1.4039096   3.0658427  )
        89        C      tau(  89) = (   0.5565249   1.0619066   3.2710183  )
        90        H      tau(  90) = (   0.7505448   0.9126570   3.3792721  )
        91        H      tau(  91) = (   0.3382717   1.2064821   3.2163769  )
        92        C      tau(  92) = (   0.6360276   0.9750241   3.4022620  )
        93        C      tau(  93) = (   0.4046800   1.1418150   3.3111144  )
        94        C      tau(  94) = (   0.5688506   0.9650673   3.5583175  )
        95        C      tau(  95) = (   0.3411741   1.1390300   3.4689080  )
        96        H      tau(  96) = (   0.6305454   0.8928060   3.6495502  )
        97        H      tau(  97) = (   0.2276817   1.2022128   3.4939943  )
        98        C      tau(  98) = (   0.4195791   1.0489329   3.5988973  )
        99        O      tau(  99) = (   0.3443099   1.0398973   3.7400897  )
       100        H      tau( 100) = (   0.6470109   0.9877166   3.8837877  )
       101        C      tau( 101) = (   0.3876655   0.9380872   3.8643982  )
       102        C      tau( 102) = (   0.5466223   0.9175664   3.9336480  )
       103        H      tau( 103) = (   0.1336196   0.8689060   3.8937720  )
       104        C      tau( 104) = (   0.2568027   0.8548147   3.9401553  )
       105        C      tau( 105) = (   0.5812044   0.8120352   4.0648756  )
       106        H      tau( 106) = (   0.7056869   0.7988018   4.1082927  )
       107        C      tau( 107) = (   0.2847082   0.7569030   4.0814554  )
       108        C      tau( 108) = (   0.4530575   0.7270763   4.1459087  )
       109        C      tau( 109) = (   0.1620227   0.6723804   4.1920396  )
       110        O      tau( 110) = (   0.0200302   0.6747702   4.1682079  )
       111        C      tau( 111) = (   0.4431573   0.6159749   4.2942204  )
       112        N      tau( 112) = (   0.2592124   0.5866319   4.3304235  )
       113        O      tau( 113) = (   0.5556763   0.5638479   4.3672521  )
       114        C      tau( 114) = (   0.1860320   0.4864147   4.4623655  )
       115        H      tau( 115) = (   0.4005287   0.3551647   4.5330051  )
       116        H      tau( 116) = (  -0.0571933   0.5900735   4.4305044  )
       117        C      tau( 117) = (   0.2719289   0.3722106   4.5606945  )
       118        C      tau( 118) = (   0.0169214   0.5031622   4.4975943  )
       119        C      tau( 119) = (   0.2065028   0.2785043   4.6916810  )
       120        C      tau( 120) = (  -0.0585751   0.4081560   4.6198357  )
       121        H      tau( 121) = (  -0.1885534   0.4215052   4.6428738  )
       122        O      tau( 122) = (   0.0924898   0.0564859   4.9867750  )
       123        C      tau( 123) = (   0.0353651   0.2974467   4.7128926  )
       124        N      tau( 124) = (   0.3018296   0.1777520   4.8070070  )
       125        C      tau( 125) = (   0.2303642   0.0737382   4.9500078  )
       126        O      tau( 126) = (   0.5911397   0.2136796   4.7322123  )
       127        C      tau( 127) = (   0.4899566   0.1543473   4.8152353  )
       128        H      tau( 128) = (  -0.0273747   0.2282539   4.8059498  )
       129        C      tau( 129) = (   0.3699368  -0.0102969   5.0374444  )
       130        C      tau( 130) = (   0.5257532   0.0372153   4.9550884  )
       131        H      tau( 131) = (   0.2628773  -0.1525336   5.2362847  )
       132        C      tau( 132) = (   0.3748943  -0.1200859   5.1734905  )
       133        C      tau( 133) = (   0.6747819  -0.0318982   5.0129817  )
       134        H      tau( 134) = (   0.7895328   0.0008371   4.9557826  )
       135        C      tau( 135) = (   0.5235547  -0.1886570   5.2235943  )
       136        C      tau( 136) = (   0.6711171  -0.1461378   5.1420302  )
       137        O      tau( 137) = (   0.5298334  -0.3045817   5.3482554  )
       138        H      tau( 138) = (   0.7848198  -0.2020297   5.1805963  )
       139        H      tau( 139) = (   0.7743676   0.5550069   0.1656280  )
       140        C      tau( 140) = (   0.8330831   0.4682280   0.2462271  )
       141        C      tau( 141) = (   0.7880922   0.2984555   0.2396373  )
       142        H      tau( 142) = (   1.3575308   0.3574022   0.4875585  )
       143        H      tau( 143) = (   0.9729054   0.6550483   0.3622540  )
       144        H      tau( 144) = (   1.2370180   0.6645984   0.4087408  )
       145        C      tau( 145) = (   0.9477350   0.5252985   0.3588231  )
       146        C      tau( 146) = (   0.8661126   0.1893671   0.3531410  )
       147        H      tau( 147) = (   0.8328216   0.0610514   0.3531777  )
       148        C      tau( 148) = (   1.0295998   0.4159797   0.4701596  )
       149        C      tau( 149) = (   1.3045000   0.3840347   0.6086759  )
       150        C      tau( 150) = (   0.9840416   0.2461311   0.4624898  )
       151        H      tau( 151) = (   1.3987541   0.4510614   0.6777742  )
       152        C      tau( 152) = (   1.2023491   0.6602905   0.5390378  )
       153        H      tau( 153) = (   1.2839719   0.2682148   0.6733505  )
       154        H      tau( 154) = (   1.0394391   0.1595997   0.5460616  )
       155        C      tau( 155) = (   1.1406855   0.4877335   0.5921444  )
       156        H      tau( 156) = (   1.1110101   0.7564523   0.5627865  )
       157        H      tau( 157) = (   1.3120474   0.6955587   0.6077383  )
       158        C      tau( 158) = (   1.0541959   0.5043164   0.7566705  )
       159        H      tau( 159) = (   0.8323623   0.3753873   0.6824918  )
       160        H      tau( 160) = (   1.2429070   0.6401441   0.8876278  )
       161        C      tau( 161) = (   0.8906889   0.4410735   0.7815675  )
       162        C      tau( 162) = (   1.1206171   0.5907735   0.8960299  )
       163        C      tau( 163) = (   0.8047290   0.4609267   0.9256709  )
       164        C      tau( 164) = (   1.0346061   0.6173932   1.0392015  )
       165        H      tau( 165) = (   0.6833458   0.4099363   0.9360309  )
       166        H      tau( 166) = (   1.0914333   0.6885664   1.1339168  )
       167        C      tau( 167) = (   0.8714778   0.5536848   1.0609917  )
       168        O      tau( 168) = (   0.7697624   0.5879465   1.1815867  )
       169        H      tau( 169) = (   1.0603435   0.6352204   1.3549016  )
       170        C      tau( 170) = (   0.7989584   0.6751085   1.3172052  )
       171        C      tau( 171) = (   0.9531949   0.6992151   1.3980806  )
       172        H      tau( 172) = (   0.5375562   0.7259775   1.3309391  )
       173        C      tau( 173) = (   0.6561514   0.7485459   1.3851797  )
       174        C      tau( 174) = (   0.9707435   0.8006551   1.5340112  )
       175        H      tau( 175) = (   1.0891877   0.8157372   1.5911915  )
       176        C      tau( 176) = (   0.6685412   0.8519243   1.5224163  )
       177        C      tau( 177) = (   0.8318095   0.8843441   1.5989330  )
       178        C      tau( 178) = (   0.5364702   0.9448784   1.6162389  )
       179        O      tau( 179) = (   0.3983141   0.9521402   1.5765546  )
       180        C      tau( 180) = (   0.8100669   1.0031520   1.7383430  )
       181        N      tau( 181) = (   0.6214586   1.0345046   1.7578653  )
       182        O      tau( 182) = (   0.9187167   1.0647235   1.8094497  )
       183        H      tau( 183) = (   0.2879142   1.0874429   1.8169130  )
       184        C      tau( 184) = (   0.5416587   1.1516700   1.8700943  )
       185        C      tau( 185) = (   0.3702152   1.1535431   1.8972190  )
       186        H      tau( 186) = (   0.7634121   1.2628869   1.9479982  )
       187        C      tau( 187) = (   0.6345119   1.2532255   1.9760141  )
       188        C      tau( 188) = (   0.3047863   1.2324862   2.0355193  )
       189        H      tau( 189) = (   0.1750895   1.2234409   2.0593729  )
       190        C      tau( 190) = (   0.5763620   1.3386064   2.1159957  )
       191        C      tau( 191) = (   0.4063685   1.3206650   2.1437742  )
       192        O      tau( 192) = (   0.9583297   1.3644541   2.1311556  )
       193        N      tau( 193) = (   0.6832624   1.4377251   2.2226341  )
       194        H      tau( 194) = (   0.3522611   1.3763026   2.2504804  )
       195        C      tau( 195) = (   0.8711661   1.4450559   2.2125790  )
       196        O      tau( 196) = (   0.5030915   1.5679945   2.4281614  )
       197        C      tau( 197) = (   0.6332714   1.5488660   2.3705982  )
       198        C      tau( 198) = (   0.9322168   1.5670224   2.3382273  )
       199        C      tau( 199) = (   0.7888057   1.6274307   2.4338302  )
       200        H      tau( 200) = (   1.1966944   1.5855814   2.3029001  )
       201        C      tau( 201) = (   1.0923463   1.6265699   2.3730520  )
       202        C      tau( 202) = (   0.8175042   1.7437285   2.5606261  )
       203        H      tau( 203) = (   0.7153872   1.7894628   2.6311999  )
       204        C      tau( 204) = (   1.1123437   1.7403943   2.5011619  )
       205        C      tau( 205) = (   0.9769388   1.7982022   2.5934198  )
       206        H      tau( 206) = (   1.2340759   1.7848932   2.5288214  )
       207        H      tau( 207) = (   1.1216279   2.0893341   2.9618669  )
       208        O      tau( 208) = (   1.0061929   1.9138230   2.7150002  )
       209        C      tau( 209) = (   1.0990819   1.9611619   2.9854217  )
       210        C      tau( 210) = (   1.0521320   1.8531970   2.8542680  )
       211        H      tau( 211) = (   1.1416118   1.9870690   3.2412350  )
       212        H      tau( 212) = (   1.1655685   1.4151061   3.2602877  )
       213        H      tau( 213) = (   1.3391377   1.8351305   3.3683586  )
       214        C      tau( 214) = (   1.1120815   1.9021303   3.1444297  )
       215        C      tau( 215) = (   1.0359348   1.6808784   2.8889453  )
       216        H      tau( 216) = (   1.0063385   1.5970327   2.7914698  )
       217        C      tau( 217) = (   1.2322797   1.5116774   3.3255854  )
       218        C      tau( 218) = (   1.0921365   1.7307250   3.1804537  )
       219        C      tau( 219) = (   1.2326143   1.7981987   3.4422387  )
       220        H      tau( 220) = (   1.3419246   1.5400439   3.2524800  )
       221        C      tau( 221) = (   1.0564675   1.6215209   3.0468082  )
       222        H      tau( 222) = (   1.1638798   1.9098612   3.4732905  )
       223        H      tau( 223) = (   1.2733169   1.4616303   3.4430720  )
       224        H      tau( 224) = (   1.2812867   1.7473736   3.5570487  )
       225        C      tau( 225) = (   1.1225006   1.6716864   3.3480941  )
       226        H      tau( 226) = (   1.0453364   1.4909131   3.0662109  )
       227        C      tau( 227) = (   0.9725148   1.6366339   3.4442701  )
       228        H      tau( 228) = (   0.8587010   1.4825194   3.2600534  )
       229        H      tau( 229) = (   1.0356970   1.7783601   3.6616318  )
       230        C      tau( 230) = (   0.8456135   1.5338294   3.3806634  )
       231        C      tau( 231) = (   0.9446844   1.7008977   3.6052334  )
       232        C      tau( 232) = (   0.7047554   1.4947221   3.4712956  )
       233        C      tau( 233) = (   0.8017295   1.6679168   3.6945189  )
       234        H      tau( 234) = (   0.6147183   1.4110929   3.4216823  )
       235        H      tau( 235) = (   0.7863675   1.7205108   3.8152610  )
       236        C      tau( 236) = (   0.6788478   1.5634218   3.6289999  )
       237        O      tau( 237) = (   0.5351415   1.5293738   3.7075793  )
       238        H      tau( 238) = (   0.8172457   1.4200896   3.8325512  )
       239        C      tau( 239) = (   0.5501388   1.4376893   3.8380087  )
       240        C      tau( 240) = (   0.7083479   1.3909770   3.9009873  )
       241        H      tau( 241) = (   0.2855264   1.4127610   3.8703247  )
       242        C      tau( 242) = (   0.4055531   1.3878254   3.9211067  )
       243        C      tau( 243) = (   0.7277555   1.3096847   4.0491161  )
       244        H      tau( 244) = (   0.8486678   1.2796302   4.0941231  )
       245        C      tau( 245) = (   0.4207262   1.3007923   4.0690991  )
       246        C      tau( 246) = (   0.5862983   1.2616983   4.1391060  )
       247        C      tau( 247) = (   0.2916693   1.2251742   4.1787861  )
       248        O      tau( 248) = (   0.1497574   1.2423478   4.1620145  )
       249        C      tau( 249) = (   0.5715995   1.1611060   4.2929102  )
       250        N      tau( 250) = (   0.3823403   1.1277370   4.3133068  )
       251        O      tau( 251) = (   0.6814198   1.1174617   4.3745555  )
       252        C      tau( 252) = (   0.3008602   1.0290314   4.4390834  )
       253        H      tau( 253) = (   0.5195365   0.9521000   4.5614476  )
       254        H      tau( 254) = (   0.0525105   1.0834639   4.3581417  )
       255        C      tau( 255) = (   0.3876151   0.9379923   4.5587849  )
       256        C      tau( 256) = (   0.1272316   1.0158916   4.4437389  )
       257        C      tau( 257) = (   0.3151981   0.8277745   4.6720183  )
       258        C      tau( 258) = (   0.0478112   0.9175372   4.5603085  )
       259        H      tau( 259) = (  -0.0845209   0.9127531   4.5631239  )
       260        O      tau( 260) = (   0.2038967   0.5691259   4.9377110  )
       261        C      tau( 261) = (   0.1414680   0.8242625   4.6710300  )
       262        N      tau( 262) = (   0.4110668   0.7176217   4.7767874  )
       263        C      tau( 263) = (   0.3412824   0.5943578   4.9051271  )
       264        O      tau( 264) = (   0.7001144   0.7847356   4.7167003  )
       265        C      tau( 265) = (   0.6006338   0.7061270   4.7846065  )
       266        H      tau( 266) = (   0.0773456   0.7474936   4.7569244  )
       267        C      tau( 267) = (   0.4852670   0.5105012   4.9873236  )
       268        C      tau( 268) = (   0.6385711   0.5749530   4.9100017  )
       269        H      tau( 269) = (   0.3866246   0.3508645   5.1754462  )
       270        C      tau( 270) = (   0.4967648   0.3943891   5.1143918  )
       271        C      tau( 271) = (   0.7925917   0.5086709   4.9571522  )
       272        H      tau( 272) = (   0.9037149   0.5506033   4.8985397  )
       273        C      tau( 273) = (   0.6521232   0.3382952   5.1644286  )
       274        C      tau( 274) = (   0.7969881   0.3886638   5.0784408  )
       275        O      tau( 275) = (   0.6688107   0.2484122   5.3013518  )
       276        H      tau( 276) = (   0.9143337   0.3366633   5.1102534  )

   Crystallographic axes

     site n.     atom                  positions (cryst. coord.)
         1        H      tau(   1) = (  0.4764639  0.0058558  0.0547923  )
         2        C      tau(   2) = (  0.5032714 -0.0769233  0.0733519  )
         3        C      tau(   3) = (  0.5320111 -0.2380859  0.0654372  )
         4        H      tau(   4) = (  0.6840542 -0.1498010  0.2073991  )
         5        H      tau(   5) = (  0.4916543  0.0972328  0.1094598  )
         6        H      tau(   6) = (  0.7316891  0.1035630  0.1869025  )
         7        C      tau(   7) = (  0.5114709 -0.0249250  0.1045212  )
         8        C      tau(   8) = (  0.5667493 -0.3445747  0.0911201  )
         9        H      tau(   9) = (  0.5880241 -0.4666634  0.0860422  )
        10        C      tau(  10) = (  0.5487308 -0.1299511  0.1302157  )
        11        C      tau(  11) = (  0.6484171 -0.1965111  0.1841319  )
        12        C      tau(  12) = (  0.5743127 -0.2917080  0.1221623  )
        13        H      tau(  13) = (  0.5656351 -0.2956604  0.1881924  )
        14        C      tau(  14) = (  0.6942816  0.0732765  0.1626122  )
        15        H      tau(  15) = (  0.7601200 -0.2423426  0.1728602  )
        16        H      tau(  16) = (  0.6007761 -0.3758758  0.1405266  )
        17        C      tau(  17) = (  0.5657802 -0.0662065  0.1625535  )
        18        H      tau(  18) = (  0.8063115  0.0424122  0.1496520  )
        19        H      tau(  19) = (  0.6426249  0.1784713  0.1516637  )
        20        C      tau(  20) = (  0.4119693 -0.0106980  0.1773063  )
        21        H      tau(  21) = (  0.2550744 -0.1748094  0.1524466  )
        22        H      tau(  22) = (  0.5142097  0.1800860  0.2055940  )
        23        C      tau(  23) = (  0.2583581 -0.0847899  0.1702302  )
        24        C      tau(  24) = (  0.4048010  0.1154887  0.1998085  )
        25        C      tau(  25) = (  0.1148806 -0.0478433  0.1864908  )
        26        C      tau(  26) = (  0.2599146  0.1596158  0.2147129  )
        27        H      tau(  27) = (  0.0047821 -0.1133823  0.1816135  )
        28        H      tau(  28) = (  0.2607729  0.2586336  0.2306034  )
        29        C      tau(  29) = (  0.1118181  0.0726583  0.2100941  )
        30        O      tau(  30) = ( -0.0254995  0.0950960  0.2265111  )
        31        H      tau(  31) = (  0.2305001  0.1027099  0.2691399  )
        32        C      tau(  32) = ( -0.0232197  0.1512792  0.2559247  )
        33        C      tau(  33) = (  0.1213475  0.1670097  0.2752334  )
        34        H      tau(  34) = ( -0.2857132  0.1914585  0.2549193  )
        35        C      tau(  35) = ( -0.1729079  0.2142174  0.2674422  )
        36        C      tau(  36) = (  0.1276263  0.2646661  0.3015243  )
        37        H      tau(  37) = (  0.2405844  0.2783604  0.3145943  )
        38        C      tau(  38) = ( -0.1731658  0.3086826  0.2948834  )
        39        C      tau(  39) = ( -0.0163604  0.3439436  0.3118026  )
        40        C      tau(  40) = ( -0.3115053  0.3887814  0.3126570  )
        41        O      tau(  41) = ( -0.4490307  0.3843283  0.3047638  )
        42        C      tau(  42) = ( -0.0478352  0.4524538  0.3393525  )
        43        N      tau(  43) = ( -0.2355136  0.4782906  0.3412726  )
        44        O      tau(  44) = (  0.0541684  0.5069978  0.3556049  )
        45        H      tau(  45) = ( -0.5642094  0.4839608  0.3510221  )
        46        C      tau(  46) = ( -0.3259360  0.5715804  0.3647993  )
        47        C      tau(  47) = ( -0.4993948  0.5629095  0.3663917  )
        48        H      tau(  48) = ( -0.1211360  0.6893659  0.3859876  )
        49        C      tau(  49) = ( -0.2530163  0.6774703  0.3864857  )
        50        C      tau(  50) = ( -0.5918344  0.6549148  0.3874909  )
        51        H      tau(  51) = ( -0.7243999  0.6470008  0.3877229  )
        52        C      tau(  52) = ( -0.3379853  0.7735602  0.4083823  )
        53        C      tau(  53) = ( -0.5117055  0.7576297  0.4082584  )
        54        O      tau(  54) = ( -0.4954642  0.9682290  0.4618151  )
        55        N      tau(  55) = ( -0.2599230  0.8859579  0.4298138  )
        56        H      tau(  56) = ( -0.5864137  0.8263800  0.4240436  )
        57        C      tau(  57) = ( -0.3544773  0.9712744  0.4561858  )
        58        O      tau(  58) = (  0.0409654  0.8701496  0.4217454  )
        59        C      tau(  59) = ( -0.0715489  0.9202248  0.4355653  )
        60        C      tau(  60) = ( -0.2303158  1.0583887  0.4761445  )
        61        C      tau(  61) = ( -0.0613656  1.0291518  0.4637003  )
        62        H      tau(  62) = ( -0.3825649  1.1774961  0.5110570  )
        63        C      tau(  63) = ( -0.2591007  1.1569654  0.5027270  )
        64        C      tau(  64) = (  0.0695673  1.1069079  0.4790851  )
        65        H      tau(  65) = (  0.1931190  1.0946192  0.4702452  )
        66        C      tau(  66) = ( -0.1245654  1.2255789  0.5176380  )
        67        C      tau(  67) = (  0.0380013  1.2017854  0.5057247  )
        68        H      tau(  68) = ( -0.1452495  1.2984165  0.5381592  )
        69        H      tau(  69) = (  0.2770889  0.9885274  0.5142153  )
        70        O      tau(  70) = (  0.1546425  1.2897604  0.5199557  )
        71        C      tau(  71) = (  0.3294743  1.0650343  0.5317682  )
        72        C      tau(  72) = (  0.2839083  1.2273593  0.5333210  )
        73        H      tau(  73) = (  0.4620044  0.8802126  0.5524096  )
        74        H      tau(  74) = (  0.5642083  0.7669834  0.5906345  )
        75        H      tau(  75) = (  0.8772706  1.0492128  0.6213076  )
        76        C      tau(  76) = (  0.4374634  1.0038352  0.5536979  )
        77        C      tau(  77) = (  0.3680287  1.3247943  0.5561271  )
        78        H      tau(  78) = (  0.3393126  1.4479138  0.5571525  )
        79        C      tau(  79) = (  0.6715554  0.8443524  0.5903460  )
        80        C      tau(  80) = (  0.5170526  1.0961931  0.5779061  )
        81        C      tau(  81) = (  0.7974476  1.0992030  0.6028973  )
        82        H      tau(  82) = (  0.7228264  0.8456882  0.5661983  )
        83        C      tau(  83) = (  0.4784816  1.2608096  0.5772284  )
        84        H      tau(  84) = (  0.8619833  1.0878834  0.5801290  )
        85        H      tau(  85) = (  0.7646497  0.7889923  0.6054615  )
        86        H      tau(  86) = (  0.7844342  1.2238675  0.6078319  )
        87        C      tau(  87) = (  0.6280048  1.0161313  0.6019105  )
        88        H      tau(  88) = (  0.5355467  1.3383239  0.5942037  )
        89        C      tau(  89) = (  0.5565249  1.0122980  0.6339696  )
        90        H      tau(  90) = (  0.7505448  0.8700208  0.6549507  )
        91        H      tau(  91) = (  0.3382717  1.1501195  0.6233793  )
        92        C      tau(  92) = (  0.6360276  0.9294744  0.6594065  )
        93        C      tau(  93) = (  0.4046800  1.0884734  0.6417408  )
        94        C      tau(  94) = (  0.5688506  0.9199828  0.6896523  )
        95        C      tau(  95) = (  0.3411741  1.0858186  0.6723234  )
        96        H      tau(  96) = (  0.6305454  0.8510972  0.7073345  )
        97        H      tau(  97) = (  0.2276817  1.1460497  0.6771855  )
        98        C      tau(  98) = (  0.4195791  0.9999304  0.6975172  )
        99        O      tau(  99) = (  0.3443099  0.9913169  0.7248823  )
       100        H      tau( 100) = (  0.6470109  0.9415740  0.7527330  )
       101        C      tau( 101) = (  0.3876655  0.8942631  0.7489750  )
       102        C      tau( 102) = (  0.5466223  0.8747009  0.7623966  )
       103        H      tau( 103) = (  0.1336196  0.8283137  0.7546681  )
       104        C      tau( 104) = (  0.2568027  0.8148808  0.7636578  )
       105        C      tau( 105) = (  0.5812044  0.7740997  0.7878304  )
       106        H      tau( 106) = (  0.7056869  0.7614846  0.7962452  )
       107        C      tau( 107) = (  0.2847082  0.7215431  0.7910438  )
       108        C      tau( 108) = (  0.4530575  0.6931099  0.8035357  )
       109        C      tau( 109) = (  0.1620227  0.6409692  0.8124766  )
       110        O      tau( 110) = (  0.0200302  0.6432473  0.8078576  )
       111        C      tau( 111) = (  0.4431573  0.5871987  0.8322807  )
       112        N      tau( 112) = (  0.2592124  0.5592266  0.8392973  )
       113        O      tau( 113) = (  0.5556763  0.5375069  0.8464352  )
       114        C      tau( 114) = (  0.1860320  0.4636911  0.8648695  )
       115        H      tau( 115) = (  0.4005287  0.3385727  0.8785605  )
       116        H      tau( 116) = ( -0.0571933  0.5625073  0.8586944  )
       117        C      tau( 117) = (  0.2719289  0.3548222  0.8839271  )
       118        C      tau( 118) = (  0.0169214  0.4796563  0.8716974  )
       119        C      tau( 119) = (  0.2065028  0.2654936  0.9093141  )
       120        C      tau( 120) = ( -0.0585751  0.3890884  0.8953895  )
       121        H      tau( 121) = ( -0.1885534  0.4018140  0.8998546  )
       122        O      tau( 122) = (  0.0924898  0.0538470  0.9665075  )
       123        C      tau( 123) = (  0.0353651  0.2835511  0.9134252  )
       124        N      tau( 124) = (  0.3018296  0.1694481  0.9316660  )
       125        C      tau( 125) = (  0.2303642  0.0702934  0.9593815  )
       126        O      tau( 126) = (  0.5911397  0.2036972  0.9171697  )
       127        C      tau( 127) = (  0.4899566  0.1471367  0.9332607  )
       128        H      tau( 128) = ( -0.0273747  0.2175907  0.9314610  )
       129        C      tau( 129) = (  0.3699368 -0.0098159  0.9763280  )
       130        C      tau( 130) = (  0.5257532  0.0354767  0.9603662  )
       131        H      tau( 131) = (  0.2628773 -0.1454077  1.0148660  )
       132        C      tau( 132) = (  0.3748943 -0.1144759  1.0026956  )
       133        C      tau( 133) = (  0.6747819 -0.0304080  0.9715868  )
       134        H      tau( 134) = (  0.7895328  0.0007980  0.9605008  )
       135        C      tau( 135) = (  0.5235547 -0.1798436  1.0124065  )
       136        C      tau( 136) = (  0.6711171 -0.1393108  0.9965982  )
       137        O      tau( 137) = (  0.5298334 -0.2903527  1.0365675  )
       138        H      tau( 138) = (  0.7848198 -0.1925916  1.0040728  )
       139        H      tau( 139) = (  0.7743676  0.5290790  0.0321010  )
       140        C      tau( 140) = (  0.8330831  0.4463540  0.0477223  )
       141        C      tau( 141) = (  0.7880922  0.2845128  0.0464451  )
       142        H      tau( 142) = (  1.3575308  0.3407056  0.0944957  )
       143        H      tau( 143) = (  0.9729054  0.6244468  0.0702099  )
       144        H      tau( 144) = (  1.2370180  0.6335507  0.0792198  )
       145        C      tau( 145) = (  0.9477350  0.5007584  0.0695450  )
       146        C      tau( 146) = (  0.8661126  0.1805205  0.0684437  )
       147        H      tau( 147) = (  0.8328216  0.0581993  0.0684508  )
       148        C      tau( 148) = (  1.0295998  0.3965466  0.0911236  )
       149        C      tau( 149) = (  1.3045000  0.3660939  0.1179700  )
       150        C      tau( 150) = (  0.9840416  0.2346327  0.0896371  )
       151        H      tau( 151) = (  1.3987541  0.4299894  0.1313622  )
       152        C      tau( 152) = (  1.2023491  0.6294440  0.1044731  )
       153        H      tau( 153) = (  1.2839719  0.2556847  0.1305048  )
       154        H      tau( 154) = (  1.0394391  0.1521438  0.1058345  )
       155        C      tau( 155) = (  1.1406855  0.4649483  0.1147660  )
       156        H      tau( 156) = (  1.1110101  0.7211135  0.1090760  )
       157        H      tau( 157) = (  1.3120474  0.6630646  0.1177883  )
       158        C      tau( 158) = (  1.0541959  0.4807565  0.1466534  )
       159        H      tau( 159) = (  0.8323623  0.3578505  0.1322766  )
       160        H      tau( 160) = (  1.2429070  0.6102388  0.1720348  )
       161        C      tau( 161) = (  0.8906889  0.4204681  0.1514788  )
       162        C      tau( 162) = (  1.1206171  0.5631747  0.1736633  )
       163        C      tau( 163) = (  0.8047290  0.4393938  0.1794081  )
       164        C      tau( 164) = (  1.0346061  0.5885508  0.2014119  )
       165        H      tau( 165) = (  0.6833458  0.3907855  0.1814160  )
       166        H      tau( 166) = (  1.0914333  0.6563990  0.2197691  )
       167        C      tau( 167) = (  0.8714778  0.5278186  0.2056352  )
       168        O      tau( 168) = (  0.7697624  0.5604797  0.2290082  )
       169        H      tau( 169) = (  1.0603435  0.6055452  0.2625991  )
       170        C      tau( 170) = (  0.7989584  0.6435698  0.2552930  )
       171        C      tau( 171) = (  0.9531949  0.6665502  0.2709678  )
       172        H      tau( 172) = (  0.5375562  0.6920624  0.2579548  )
       173        C      tau( 173) = (  0.6561514  0.7135764  0.2684674  )
       174        C      tau( 174) = (  0.9707435  0.7632513  0.2973131  )
       175        H      tau( 175) = (  1.0891877  0.7776288  0.3083954  )
       176        C      tau( 176) = (  0.6685412  0.8121254  0.2950658  )
       177        C      tau( 177) = (  0.8318095  0.8430307  0.3098958  )
       178        C      tau( 178) = (  0.5364702  0.9007370  0.3132500  )
       179        O      tau( 179) = (  0.3983141  0.9076596  0.3055586  )
       180        C      tau( 180) = (  0.8100669  0.9562883  0.3369155  )
       181        N      tau( 181) = (  0.6214586  0.9861762  0.3406992  )
       182        O      tau( 182) = (  0.9187167  1.0149834  0.3506969  )
       183        H      tau( 183) = (  0.2879142  1.0366414  0.3521434  )
       184        C      tau( 184) = (  0.5416587  1.0978680  0.3624507  )
       185        C      tau( 185) = (  0.3702152  1.0996536  0.3677079  )
       186        H      tau( 186) = (  0.7634121  1.2038893  0.3775496  )
       187        C      tau( 187) = (  0.6345119  1.1946792  0.3829795  )
       188        C      tau( 188) = (  0.3047863  1.1749088  0.3945124  )
       189        H      tau( 189) = (  0.1750895  1.1662860  0.3991356  )
       190        C      tau( 190) = (  0.5763620  1.2760714  0.4101099  )
       191        C      tau( 191) = (  0.4063685  1.2589681  0.4154938  )
       192        O      tau( 192) = (  0.9583297  1.3007116  0.4130481  )
       193        N      tau( 193) = (  0.6832624  1.3705597  0.4307779  )
       194        H      tau( 194) = (  0.3522611  1.3120066  0.4361749  )
       195        C      tau( 195) = (  0.8711661  1.3775480  0.4288291  )
       196        O      tau( 196) = (  0.5030915  1.4947433  0.4706120  )
       197        C      tau( 197) = (  0.6332714  1.4765084  0.4594555  )
       198        C      tau( 198) = (  0.9322168  1.4938167  0.4531815  )
       199        C      tau( 199) = (  0.7888057  1.5514028  0.4717107  )
       200        H      tau( 200) = (  1.1966944  1.5115086  0.4463346  )
       201        C      tau( 201) = (  1.0923463  1.5505823  0.4599310  )
       202        C      tau( 202) = (  0.8175042  1.6622676  0.4962855  )
       203        H      tau( 203) = (  0.7153872  1.7058654  0.5099638  )
       204        C      tau( 204) = (  1.1123437  1.6590892  0.4847606  )
       205        C      tau( 205) = (  0.9769388  1.7141966  0.5026414  )
       206        H      tau( 206) = (  1.2340759  1.7015093  0.4901214  )
       207        H      tau( 207) = (  1.1216279  1.9917277  0.5740517  )
       208        O      tau( 208) = (  1.0061929  1.8244159  0.5262054  )
       209        C      tau( 209) = (  1.0990819  1.8695433  0.5786169  )
       210        C      tau( 210) = (  1.0521320  1.7666222  0.5531975  )
       211        H      tau( 211) = (  1.1416118  1.8942401  0.6281972  )
       212        H      tau( 212) = (  1.1655685  1.3489973  0.6318899  )
       213        H      tau( 213) = (  1.3391377  1.7493997  0.6528355  )
       214        C      tau( 214) = (  1.1120815  1.8132694  0.6094349  )
       215        C      tau( 215) = (  1.0359348  1.6023537  0.5599185  )
       216        H      tau( 216) = (  1.0063385  1.5224250  0.5410263  )
       217        C      tau( 217) = (  1.2322797  1.4410572  0.6445455  )
       218        C      tau( 218) = (  1.0921365  1.6498716  0.6164169  )
       219        C      tau( 219) = (  1.2326143  1.7141932  0.6671545  )
       220        H      tau( 220) = (  1.3419246  1.4680985  0.6303766  )
       221        C      tau( 221) = (  1.0564675  1.5457692  0.5905145  )
       222        H      tau( 222) = (  1.1638798  1.8206392  0.6731728  )
       223        H      tau( 223) = (  1.2733169  1.3933481  0.6673161  )
       224        H      tau( 224) = (  1.2812867  1.6657425  0.6894063  )
       225        C      tau( 225) = (  1.1225006  1.5935911  0.6489080  )
       226        H      tau( 226) = (  1.0453364  1.4212629  0.5942750  )
       227        C      tau( 227) = (  0.9725148  1.5601761  0.6675483  )
       228        H      tau( 228) = (  0.8587010  1.4132614  0.6318445  )
       229        H      tau( 229) = (  1.0356970  1.6952814  0.7096760  )
       230        C      tau( 230) = (  0.8456135  1.4621742  0.6552204  )
       231        C      tau( 231) = (  0.9446844  1.6214377  0.6987452  )
       232        C      tau( 232) = (  0.7047554  1.4248939  0.6727862  )
       233        C      tau( 233) = (  0.8017295  1.5899976  0.7160500  )
       234        H      tau( 234) = (  0.6147183  1.3451716  0.6631704  )
       235        H      tau( 235) = (  0.7863675  1.6401346  0.7394515  )
       236        C      tau( 236) = (  0.6788478  1.4903842  0.7033515  )
       237        O      tau( 237) = (  0.5351415  1.4579268  0.7185813  )
       238        H      tau( 238) = (  0.8172457  1.3537480  0.7428026  )
       239        C      tau( 239) = (  0.5501388  1.3705255  0.7438604  )
       240        C      tau( 240) = (  0.7083479  1.3259954  0.7560665  )
       241        H      tau( 241) = (  0.2855264  1.3467618  0.7501237  )
       242        C      tau( 242) = (  0.4055531  1.3229911  0.7599659  )
       243        C      tau( 243) = (  0.7277555  1.2485008  0.7847760  )
       244        H      tau( 244) = (  0.8486678  1.2198504  0.7934990  )
       245        C      tau( 245) = (  0.4207262  1.2400238  0.7886490  )
       246        C      tau( 246) = (  0.5862983  1.2027562  0.8022173  )
       247        C      tau( 247) = (  0.2916693  1.1679384  0.8099079  )
       248        O      tau( 248) = (  0.1497574  1.1843097  0.8066573  )
       249        C      tau( 249) = (  0.5715995  1.1068633  0.8320267  )
       250        N      tau( 250) = (  0.3823403  1.0750531  0.8359799  )
       251        O      tau( 251) = (  0.6814198  1.0652578  0.8478507  )
       252        C      tau( 252) = (  0.3008602  0.9809587  0.8603572  )
       253        H      tau( 253) = (  0.5195365  0.9076213  0.8840731  )
       254        H      tau( 254) = (  0.0525105  1.0328483  0.8446695  )
       255        C      tau( 255) = (  0.3876151  0.8941726  0.8835570  )
       256        C      tau( 256) = (  0.1272316  0.9684327  0.8612594  )
       257        C      tau( 257) = (  0.3151981  0.7891038  0.9055032  )
       258        C      tau( 258) = (  0.0478112  0.8746731  0.8838523  )
       259        H      tau( 259) = ( -0.0845209  0.8701125  0.8843980  )
       260        O      tau( 260) = (  0.2038967  0.5425383  0.9569982  )
       261        C      tau( 261) = (  0.1414680  0.7857558  0.9053117  )
       262        N      tau( 262) = (  0.4110668  0.6840970  0.9258090  )
       263        C      tau( 263) = (  0.3412824  0.5665915  0.9506830  )
       264        O      tau( 264) = (  0.7001144  0.7480755  0.9141632  )
       265        C      tau( 265) = (  0.6006338  0.6731393  0.9273244  )
       266        H      tau( 266) = (  0.0773456  0.7125733  0.9219592  )
       267        C      tau( 267) = (  0.4852670  0.4866524  0.9666139  )
       268        C      tau( 268) = (  0.6385711  0.5480932  0.9516278  )
       269        H      tau( 269) = (  0.3866246  0.3344733  1.0030747  )
       270        C      tau( 270) = (  0.4967648  0.3759646  0.9912415  )
       271        C      tau( 271) = (  0.7925917  0.4849076  0.9607662  )
       272        H      tau( 272) = (  0.9037149  0.5248810  0.9494063  )
       273        C      tau( 273) = (  0.6521232  0.3224912  1.0009393  )
       274        C      tau( 274) = (  0.7969881  0.3705068  0.9842737  )
       275        O      tau( 275) = (  0.6688107  0.2368072  1.0274770  )
       276        H      tau( 276) = (  0.9143337  0.3209356  0.9904394  )

     number of k points=    18
                       cart. coord. in units 2pi/alat
        k(    1) = (   0.0000000   0.0000000   0.0000000), wk =   0.1111111
        k(    2) = (   0.0000000   0.0000000   0.0969071), wk =   0.1111111
        k(    3) = (   0.0000000   0.3177612   0.0000000), wk =   0.1111111
        k(    4) = (   0.0000000   0.3177612   0.0969071), wk =   0.1111111
        k(    5) = (   0.0000000   0.6355223   0.0000000), wk =   0.1111111
        k(    6) = (   0.0000000   0.6355223   0.0969071), wk =   0.1111111
        k(    7) = (   0.3333333   0.0000000   0.0000000), wk =   0.1111111
        k(    8) = (   0.3333333   0.0000000   0.0969071), wk =   0.1111111
        k(    9) = (   0.3333333   0.3177612   0.0000000), wk =   0.1111111
        k(   10) = (   0.3333333   0.3177612   0.0969071), wk =   0.1111111
        k(   11) = (   0.3333333   0.6355223   0.0000000), wk =   0.1111111
        k(   12) = (   0.3333333   0.6355223   0.0969071), wk =   0.1111111
        k(   13) = (   0.6666667   0.0000000   0.0000000), wk =   0.1111111
        k(   14) = (   0.6666667   0.0000000   0.0969071), wk =   0.1111111
        k(   15) = (   0.6666667   0.3177612   0.0000000), wk =   0.1111111
        k(   16) = (   0.6666667   0.3177612   0.0969071), wk =   0.1111111
        k(   17) = (   0.6666667   0.6355223   0.0000000), wk =   0.1111111
        k(   18) = (   0.6666667   0.6355223   0.0969071), wk =   0.1111111

                       cryst. coord.
        k(    1) = (   0.0000000   0.0000000   0.0000000), wk =   0.1111111
        k(    2) = (   0.0000000   0.0000000   0.5000000), wk =   0.1111111
        k(    3) = (   0.0000000   0.3333333   0.0000000), wk =   0.1111111
        k(    4) = (   0.0000000   0.3333333   0.5000000), wk =   0.1111111
        k(    5) = (   0.0000000   0.6666667   0.0000000), wk =   0.1111111
        k(    6) = (   0.0000000   0.6666667   0.5000000), wk =   0.1111111
        k(    7) = (   0.3333333   0.0000000   0.0000000), wk =   0.1111111
        k(    8) = (   0.3333333   0.0000000   0.5000000), wk =   0.1111111
        k(    9) = (   0.3333333   0.3333333   0.0000000), wk =   0.1111111
        k(   10) = (   0.3333333   0.3333333   0.5000000), wk =   0.1111111
        k(   11) = (   0.3333333   0.6666667   0.0000000), wk =   0.1111111
        k(   12) = (   0.3333333   0.6666667   0.5000000), wk =   0.1111111
        k(   13) = (   0.6666667   0.0000000   0.0000000), wk =   0.1111111
        k(   14) = (   0.6666667   0.0000000   0.5000000), wk =   0.1111111
        k(   15) = (   0.6666667   0.3333333   0.0000000), wk =   0.1111111
        k(   16) = (   0.6666667   0.3333333   0.5000000), wk =   0.1111111
        k(   17) = (   0.6666667   0.6666667   0.0000000), wk =   0.1111111
        k(   18) = (   0.6666667   0.6666667   0.5000000), wk =   0.1111111

     Dense  grid:   703707 G-vectors     FFT dimensions: (  64,  72, 360)

     Dynamical RAM for                 wfc:       2.61 MB

     Dynamical RAM for     wfc (w. buffer):      49.55 MB

     Dynamical RAM for           str. fact:       0.19 MB

     Dynamical RAM for           local pot:       0.00 MB

     Dynamical RAM for          nlocal pot:      12.20 MB

     Dynamical RAM for                qrad:       2.90 MB

     Dynamical RAM for          rho,v,vnew:       0.36 MB

     Dynamical RAM for               rhoin:       0.12 MB

     Dynamical RAM for            rho*nmix:       0.77 MB

     Dynamical RAM for           G-vectors:       0.20 MB

     Dynamical RAM for          h,s,v(r/c):       2.18 MB

     Dynamical RAM for          <psi|beta>:      13.57 MB

     Dynamical RAM for                 psi:       5.22 MB

     Dynamical RAM for                hpsi:       5.22 MB

     Dynamical RAM for      wfcinit/wfcrot:       9.57 MB

     Estimated static dynamical RAM per process >      66.12 MB

     Estimated max dynamical RAM per process >      93.07 MB

     Estimated total dynamical RAM >      20.36 GB

     Check: negative core charge=   -0.000158

     Initial potential from superposition of free atoms

     starting charge     871.9924, renormalised to     872.0000
     Starting wfcs are  816 randomized atomic wfcs

     total cpu time spent up to now is       44.6 secs

     per-process dynamical memory:   173.6 Mb

     Self-consistent Calculation

     iteration #  1     ecut=    40.00 Ry     beta= 0.50
     Davidson diagonalization with overlap

---- Real-time Memory Report at c_bands before calling an iterative solver
           548 MiB given to the printing process from OS
           331 MiB allocation reported by mallinfo(arena+hblkhd)
        472404 MiB available memory on the node where the printing process lives
------------------
     ethr =  1.00E-02,  avg # of iterations =  2.0
     Davidson diagonalization with overlap

---- Real-time Memory Report at c_bands before calling an iterative solver
           573 MiB given to the printing process from OS
           342 MiB allocation reported by mallinfo(arena+hblkhd)
        470666 MiB available memory on the node where the printing process lives
------------------
     ethr =  1.00E-02,  avg # of iterations =  1.0
     Davidson diagonalization with overlap

---- Real-time Memory Report at c_bands before calling an iterative solver
           573 MiB given to the printing process from OS
           342 MiB allocation reported by mallinfo(arena+hblkhd)
        470999 MiB available memory on the node where the printing process lives
------------------
     ethr =  1.00E-02,  avg # of iterations =  1.0

     Expectation value of exp(iGx):  (3.15896923728699121E-005,-4.32020577732612497E-005)   1.0000000000000000     
     Electronic Dipole per cell (Ry a.u.)  -6.6018608147450166     
     Ionic Dipole per cell (Ry a.u.)   9289.0412334856428     

     Expectation value of exp(iGx):   (3.25628220710742658E-004,1.97986413045292859E-004)   1.0490058639940258     
     Electronic Dipole per cell (Ry a.u.)   4.0272031104555550     
     Ionic Dipole per cell (Ry a.u.)   15512.130366456693     

     Expectation value of exp(iGx):      (-0.57853120414689030,-3.24843101525618128E-002)   5.1595821521437895     
     Electronic Dipole per cell (Ry a.u.)  -111.87726919428577     
     Ionic Dipole per cell (Ry a.u.)   54330.804674140250     
Electronic Dipole on Cartesian axes
           1  -6.6018608147450166     
           2   4.0272031104555550     
           3  -111.87726919428576     
Ionic Dipole on Cartesian axes
           1   9289.0412334856428     
           2   15512.130366456693     
           3   54330.804674140250     

     total cpu time spent up to now is     2237.3 secs

     total energy              =   -2891.75543241 Ry
     estimated scf accuracy    <      24.43480248 Ry

     iteration #  2     ecut=    40.00 Ry     beta= 0.50
     Davidson diagonalization with overlap

---- Real-time Memory Report at c_bands before calling an iterative solver
           587 MiB given to the printing process from OS
           344 MiB allocation reported by mallinfo(arena+hblkhd)
        470892 MiB available memory on the node where the printing process lives
------------------
     ethr =  2.80E-03,  avg # of iterations =  4.0
     Davidson diagonalization with overlap

---- Real-time Memory Report at c_bands before calling an iterative solver
           588 MiB given to the printing process from OS
           344 MiB allocation reported by mallinfo(arena+hblkhd)
        470798 MiB available memory on the node where the printing process lives
------------------
     ethr =  2.80E-03,  avg # of iterations =  1.0
     Davidson diagonalization with overlap

---- Real-time Memory Report at c_bands before calling an iterative solver
           588 MiB given to the printing process from OS
           344 MiB allocation reported by mallinfo(arena+hblkhd)
        470721 MiB available memory on the node where the printing process lives
------------------
     ethr =  2.80E-03,  avg # of iterations =  1.0

     Expectation value of exp(iGx):  (2.15377496302350435E-005,-4.12018433861328372E-006)   1.0000000000000000     
     Electronic Dipole per cell (Ry a.u.)  -1.3283184388370011     
     Ionic Dipole per cell (Ry a.u.)   9289.0412334856428     

     Expectation value of exp(iGx):   (1.69589051864865720E-004,8.48361497534927270E-005)   1.0490058639940258     
     Electronic Dipole per cell (Ry a.u.)   3.4194110242419162     
     Ionic Dipole per cell (Ry a.u.)   15512.130366456693     

     Expectation value of exp(iGx):      (-0.54858680037012031,-8.50727224559531953E-002)   5.1595821521437895     
     Electronic Dipole per cell (Ry a.u.)  -108.33259037498495     
     Ionic Dipole per cell (Ry a.u.)   54330.804674140250     
Electronic Dipole on Cartesian axes
           1  -1.3283184388370011     
           2   3.4194110242419162     
           3  -108.33259037498496     
Ionic Dipole on Cartesian axes
           1   9289.0412334856428     
           2   15512.130366456693     
           3   54330.804674140250     

     total cpu time spent up to now is     4411.4 secs

     total energy              =   -2894.73997855 Ry
     estimated scf accuracy    <       4.28559269 Ry

     iteration #  3     ecut=    40.00 Ry     beta= 0.50
     Davidson diagonalization with overlap

---- Real-time Memory Report at c_bands before calling an iterative solver
           588 MiB given to the printing process from OS
           344 MiB allocation reported by mallinfo(arena+hblkhd)
        470702 MiB available memory on the node where the printing process lives
------------------
     ethr =  4.91E-04,  avg # of iterations =  6.0
     Davidson diagonalization with overlap

---- Real-time Memory Report at c_bands before calling an iterative solver
           588 MiB given to the printing process from OS
           344 MiB allocation reported by mallinfo(arena+hblkhd)
        470955 MiB available memory on the node where the printing process lives
------------------
     ethr =  4.91E-04,  avg # of iterations =  1.0
     Davidson diagonalization with overlap

---- Real-time Memory Report at c_bands before calling an iterative solver
           588 MiB given to the printing process from OS
           344 MiB allocation reported by mallinfo(arena+hblkhd)
        471093 MiB available memory on the node where the printing process lives
------------------
     ethr =  4.91E-04,  avg # of iterations =  1.0

     Expectation value of exp(iGx):  (1.06966844329001909E-005,-1.81193571847122956E-005)   1.0000000000000000     
     Electronic Dipole per cell (Ry a.u.)  -7.2910831003025578     
     Ionic Dipole per cell (Ry a.u.)   9289.0412334856428     

     Expectation value of exp(iGx):   (1.58595259712339832E-004,8.22370421300450230E-005)   1.0490058639940258     
     Electronic Dipole per cell (Ry a.u.)   3.5264563869902892     
     Ionic Dipole per cell (Ry a.u.)   15512.130366456693     

     Expectation value of exp(iGx):      (-0.54831387255936859,-6.03996299433628564E-002)   5.1595821521437895     
     Electronic Dipole per cell (Ry a.u.)  -109.93298264316726     
     Ionic Dipole per cell (Ry a.u.)   54330.804674140250     
Electronic Dipole on Cartesian axes
           1  -7.2910831003025578     
           2   3.5264563869902892     
           3  -109.93298264316725     
Ionic Dipole on Cartesian axes
           1   9289.0412334856428     
           2   15512.130366456693     
           3   54330.804674140250     

     total cpu time spent up to now is     6615.0 secs

     total energy              =   -2895.21110809 Ry
     estimated scf accuracy    <       1.26672685 Ry

     iteration #  4     ecut=    40.00 Ry     beta= 0.50
     Davidson diagonalization with overlap

---- Real-time Memory Report at c_bands before calling an iterative solver
           588 MiB given to the printing process from OS
           344 MiB allocation reported by mallinfo(arena+hblkhd)
        470885 MiB available memory on the node where the printing process lives
------------------
     ethr =  1.45E-04,  avg # of iterations =  6.0
     Davidson diagonalization with overlap

---- Real-time Memory Report at c_bands before calling an iterative solver
           588 MiB given to the printing process from OS
           344 MiB allocation reported by mallinfo(arena+hblkhd)
        470427 MiB available memory on the node where the printing process lives
------------------
     ethr =  1.45E-04,  avg # of iterations =  1.0
     Davidson diagonalization with overlap

---- Real-time Memory Report at c_bands before calling an iterative solver
           588 MiB given to the printing process from OS
           344 MiB allocation reported by mallinfo(arena+hblkhd)
        470733 MiB available memory on the node where the printing process lives
------------------
     ethr =  1.45E-04,  avg # of iterations =  1.0

     Expectation value of exp(iGx):  (1.63146789086986785E-005,-1.43158306143336163E-005)   1.0000000000000000     
     Electronic Dipole per cell (Ry a.u.)  -5.0614504719323792     
     Ionic Dipole per cell (Ry a.u.)   9289.0412334856428     

     Expectation value of exp(iGx):   (1.53759605229978740E-004,8.77024177229264885E-005)   1.0490058639940258     
     Electronic Dipole per cell (Ry a.u.)   3.8212999485914807     
     Ionic Dipole per cell (Ry a.u.)   15512.130366456693     

     Expectation value of exp(iGx):      (-0.54844615659170570,-7.21185060516674192E-002)   5.1595821521437895     
     Electronic Dipole per cell (Ry a.u.)  -109.17034546145300     
     Ionic Dipole per cell (Ry a.u.)   54330.804674140250     
Electronic Dipole on Cartesian axes
           1  -5.0614504719323792     
           2   3.8212999485914811     
           3  -109.17034546145300     
Ionic Dipole on Cartesian axes
           1   9289.0412334856428     
           2   15512.130366456693     
           3   54330.804674140250     

     total cpu time spent up to now is     8766.5 secs

     total energy              =   -2895.40625376 Ry
     estimated scf accuracy    <       0.20832930 Ry

     iteration #  5     ecut=    40.00 Ry     beta= 0.50
     Davidson diagonalization with overlap

---- Real-time Memory Report at c_bands before calling an iterative solver
           588 MiB given to the printing process from OS
           344 MiB allocation reported by mallinfo(arena+hblkhd)
        470697 MiB available memory on the node where the printing process lives
------------------
     ethr =  2.39E-05,  avg # of iterations =  6.0
     Davidson diagonalization with overlap

---- Real-time Memory Report at c_bands before calling an iterative solver
           588 MiB given to the printing process from OS
           344 MiB allocation reported by mallinfo(arena+hblkhd)
        470868 MiB available memory on the node where the printing process lives
------------------
     ethr =  2.39E-05,  avg # of iterations =  1.0
     Davidson diagonalization with overlap

---- Real-time Memory Report at c_bands before calling an iterative solver
           588 MiB given to the printing process from OS
           344 MiB allocation reported by mallinfo(arena+hblkhd)
        470793 MiB available memory on the node where the printing process lives
------------------
     ethr =  2.39E-05,  avg # of iterations =  1.0

     Expectation value of exp(iGx):  (1.68510823187137099E-005,-1.18233577623454938E-005)   1.0000000000000000     
     Electronic Dipole per cell (Ry a.u.)  -4.2996021915556586     
     Ionic Dipole per cell (Ry a.u.)   9289.0412334856428     

     Expectation value of exp(iGx):   (1.53584009334460083E-004,7.84399992672684174E-005)   1.0490058639940258     
     Electronic Dipole per cell (Ry a.u.)   3.4809735508077679     
     Ionic Dipole per cell (Ry a.u.)   15512.130366456693     

     Expectation value of exp(iGx):      (-0.54658503558158589,-7.71223444961541271E-002)   5.1595821521437895     
     Electronic Dipole per cell (Ry a.u.)  -108.82852167017940     
     Ionic Dipole per cell (Ry a.u.)   54330.804674140250     
Electronic Dipole on Cartesian axes
           1  -4.2996021915556586     
           2   3.4809735508077679     
           3  -108.82852167017940     
Ionic Dipole on Cartesian axes
           1   9289.0412334856428     
           2   15512.130366456693     
           3   54330.804674140250     

     total cpu time spent up to now is    10908.4 secs

     total energy              =   -2895.43621689 Ry
     estimated scf accuracy    <       0.03148051 Ry

     iteration #  6     ecut=    40.00 Ry     beta= 0.50
     Davidson diagonalization with overlap

---- Real-time Memory Report at c_bands before calling an iterative solver
           588 MiB given to the printing process from OS
           344 MiB allocation reported by mallinfo(arena+hblkhd)
        470862 MiB available memory on the node where the printing process lives
------------------
     ethr =  3.61E-06,  avg # of iterations =  6.0
     Davidson diagonalization with overlap

---- Real-time Memory Report at c_bands before calling an iterative solver
           588 MiB given to the printing process from OS
           344 MiB allocation reported by mallinfo(arena+hblkhd)
        470790 MiB available memory on the node where the printing process lives
------------------
     ethr =  3.61E-06,  avg # of iterations =  1.0
     Davidson diagonalization with overlap

---- Real-time Memory Report at c_bands before calling an iterative solver
           588 MiB given to the printing process from OS
           344 MiB allocation reported by mallinfo(arena+hblkhd)
        471057 MiB available memory on the node where the printing process lives
------------------
     ethr =  3.61E-06,  avg # of iterations =  1.0

     Expectation value of exp(iGx):  (1.53756768773270537E-005,-1.35301795330804282E-005)   1.0000000000000000     
     Electronic Dipole per cell (Ry a.u.)  -5.0713298591441420     
     Ionic Dipole per cell (Ry a.u.)   9289.0412334856428     

     Expectation value of exp(iGx):   (1.50572963500814039E-004,8.08829282855139434E-005)   1.0490058639940258     
     Electronic Dipole per cell (Ry a.u.)   3.6338879165183178     
     Ionic Dipole per cell (Ry a.u.)   15512.130366456693     

     Expectation value of exp(iGx):      (-0.54698258951207890,-7.08639623303809335E-002)   5.1595821521437895     
     Electronic Dipole per cell (Ry a.u.)  -109.23957114006167     
     Ionic Dipole per cell (Ry a.u.)   54330.804674140250     
Electronic Dipole on Cartesian axes
           1  -5.0713298591441420     
           2   3.6338879165183178     
           3  -109.23957114006167     
Ionic Dipole on Cartesian axes
           1   9289.0412334856428     
           2   15512.130366456693     
           3   54330.804674140250     

     total cpu time spent up to now is    13063.0 secs

     total energy              =   -2895.44158564 Ry
     estimated scf accuracy    <       0.00372903 Ry

     iteration #  7     ecut=    40.00 Ry     beta= 0.50
     Davidson diagonalization with overlap

---- Real-time Memory Report at c_bands before calling an iterative solver
           588 MiB given to the printing process from OS
           344 MiB allocation reported by mallinfo(arena+hblkhd)
        470776 MiB available memory on the node where the printing process lives
------------------
     ethr =  4.28E-07,  avg # of iterations =  6.2
     Davidson diagonalization with overlap

---- Real-time Memory Report at c_bands before calling an iterative solver
           588 MiB given to the printing process from OS
           344 MiB allocation reported by mallinfo(arena+hblkhd)
        470403 MiB available memory on the node where the printing process lives
------------------
     ethr =  4.28E-07,  avg # of iterations =  1.0
     Davidson diagonalization with overlap

---- Real-time Memory Report at c_bands before calling an iterative solver
           588 MiB given to the printing process from OS
           344 MiB allocation reported by mallinfo(arena+hblkhd)
        470557 MiB available memory on the node where the printing process lives
------------------
     ethr =  4.28E-07,  avg # of iterations =  1.0

     Expectation value of exp(iGx):  (1.57439103779516178E-005,-1.31858533876823687E-005)   1.0000000000000000     
     Electronic Dipole per cell (Ry a.u.)  -4.8996120910134664     
     Ionic Dipole per cell (Ry a.u.)   9289.0412334856428     

     Expectation value of exp(iGx):   (1.51613551012080324E-004,7.99700277756631392E-005)   1.0490058639940258     
     Electronic Dipole per cell (Ry a.u.)   3.5781227604513499     
     Ionic Dipole per cell (Ry a.u.)   15512.130366456693     

     Expectation value of exp(iGx):      (-0.54664737765350080,-7.45704366455284540E-002)   5.1595821521437895     
     Electronic Dipole per cell (Ry a.u.)  -108.99516399989874     
     Ionic Dipole per cell (Ry a.u.)   54330.804674140250     
Electronic Dipole on Cartesian axes
           1  -4.8996120910134664     
           2   3.5781227604513499     
           3  -108.99516399989875     
Ionic Dipole on Cartesian axes
           1   9289.0412334856428     
           2   15512.130366456693     
           3   54330.804674140250     

     total cpu time spent up to now is    15238.3 secs

     total energy              =   -2895.44221385 Ry
     estimated scf accuracy    <       0.00095099 Ry

     iteration #  8     ecut=    40.00 Ry     beta= 0.50
     Davidson diagonalization with overlap

---- Real-time Memory Report at c_bands before calling an iterative solver
           588 MiB given to the printing process from OS
           344 MiB allocation reported by mallinfo(arena+hblkhd)
        470785 MiB available memory on the node where the printing process lives
------------------
     ethr =  1.09E-07,  avg # of iterations =  6.9
     Davidson diagonalization with overlap

---- Real-time Memory Report at c_bands before calling an iterative solver
           588 MiB given to the printing process from OS
           344 MiB allocation reported by mallinfo(arena+hblkhd)
        470920 MiB available memory on the node where the printing process lives
------------------
     ethr =  1.09E-07,  avg # of iterations =  1.0
     Davidson diagonalization with overlap

---- Real-time Memory Report at c_bands before calling an iterative solver
           588 MiB given to the printing process from OS
           344 MiB allocation reported by mallinfo(arena+hblkhd)
        471279 MiB available memory on the node where the printing process lives
------------------
     ethr =  1.09E-07,  avg # of iterations =  1.0

     Expectation value of exp(iGx):  (1.56903595825662312E-005,-1.32542486155559602E-005)   1.0000000000000000     
     Electronic Dipole per cell (Ry a.u.)  -4.9293170137729430     
     Ionic Dipole per cell (Ry a.u.)   9289.0412334856428     

     Expectation value of exp(iGx):   (1.51081116061180400E-004,8.10748097940445952E-005)   1.0490058639940258     
     Electronic Dipole per cell (Ry a.u.)   3.6308168598931454     
     Ionic Dipole per cell (Ry a.u.)   15512.130366456693     

     Expectation value of exp(iGx):      (-0.54689344878267898,-7.26590720999417683E-002)   5.1595821521437895     
     Electronic Dipole per cell (Ry a.u.)  -109.12181699288968     
     Ionic Dipole per cell (Ry a.u.)   54330.804674140250     
Electronic Dipole on Cartesian axes
           1  -4.9293170137729430     
           2   3.6308168598931454     
           3  -109.12181699288969     
Ionic Dipole on Cartesian axes
           1   9289.0412334856428     
           2   15512.130366456693     
           3   54330.804674140250     

     total cpu time spent up to now is    17352.1 secs

     total energy              =   -2895.44235977 Ry
     estimated scf accuracy    <       0.00014363 Ry

     iteration #  9     ecut=    40.00 Ry     beta= 0.50
     Davidson diagonalization with overlap

---- Real-time Memory Report at c_bands before calling an iterative solver
           589 MiB given to the printing process from OS
           344 MiB allocation reported by mallinfo(arena+hblkhd)
        470528 MiB available memory on the node where the printing process lives
------------------
     ethr =  1.65E-08,  avg # of iterations =  6.0
     Davidson diagonalization with overlap

---- Real-time Memory Report at c_bands before calling an iterative solver
           589 MiB given to the printing process from OS
           344 MiB allocation reported by mallinfo(arena+hblkhd)
        470208 MiB available memory on the node where the printing process lives
------------------
     ethr =  1.65E-08,  avg # of iterations =  1.0
     Davidson diagonalization with overlap

---- Real-time Memory Report at c_bands before calling an iterative solver
           589 MiB given to the printing process from OS
           344 MiB allocation reported by mallinfo(arena+hblkhd)
        470563 MiB available memory on the node where the printing process lives
------------------
     ethr =  1.65E-08,  avg # of iterations =  1.0

     Expectation value of exp(iGx):  (1.57112536108166523E-005,-1.32134664291051988E-005)   1.0000000000000000     
     Electronic Dipole per cell (Ry a.u.)  -4.9140366437383616     
     Ionic Dipole per cell (Ry a.u.)   9289.0412334856428     

     Expectation value of exp(iGx):   (1.51838059189155264E-004,7.97048172181970656E-005)   1.0490058639940258     
     Electronic Dipole per cell (Ry a.u.)   3.5635359665917985     
     Ionic Dipole per cell (Ry a.u.)   15512.130366456693     

     Expectation value of exp(iGx):      (-0.54680494645891198,-7.34026873391725315E-002)   5.1595821521437895     
     Electronic Dipole per cell (Ry a.u.)  -109.07260535822020     
     Ionic Dipole per cell (Ry a.u.)   54330.804674140250     
Electronic Dipole on Cartesian axes
           1  -4.9140366437383616     
           2   3.5635359665917985     
           3  -109.07260535822020     
Ionic Dipole on Cartesian axes
           1   9289.0412334856428     
           2   15512.130366456693     
           3   54330.804674140250     

     total cpu time spent up to now is    19560.2 secs

     total energy              =   -2895.44238689 Ry
     estimated scf accuracy    <       0.00004511 Ry

     iteration # 10     ecut=    40.00 Ry     beta= 0.50
     Davidson diagonalization with overlap

---- Real-time Memory Report at c_bands before calling an iterative solver
           589 MiB given to the printing process from OS
           344 MiB allocation reported by mallinfo(arena+hblkhd)
        471047 MiB available memory on the node where the printing process lives
------------------
     ethr =  5.17E-09,  avg # of iterations =  6.0
     Davidson diagonalization with overlap

---- Real-time Memory Report at c_bands before calling an iterative solver
           589 MiB given to the printing process from OS
           344 MiB allocation reported by mallinfo(arena+hblkhd)
        470198 MiB available memory on the node where the printing process lives
------------------
     ethr =  5.17E-09,  avg # of iterations =  1.0
     Davidson diagonalization with overlap

---- Real-time Memory Report at c_bands before calling an iterative solver
           589 MiB given to the printing process from OS
           344 MiB allocation reported by mallinfo(arena+hblkhd)
        470903 MiB available memory on the node where the printing process lives
------------------
     ethr =  5.17E-09,  avg # of iterations =  1.0

     Expectation value of exp(iGx):  (1.56959717242579313E-005,-1.32416858405446524E-005)   1.0000000000000000     
     Electronic Dipole per cell (Ry a.u.)  -4.9247934592989582     
     Ionic Dipole per cell (Ry a.u.)   9289.0412334856428     

     Expectation value of exp(iGx):   (1.51283335179528224E-004,8.08567771350892446E-005)   1.0490058639940258     
     Electronic Dipole per cell (Ry a.u.)   3.6184510867310302     
     Ionic Dipole per cell (Ry a.u.)   15512.130366456693     

     Expectation value of exp(iGx):      (-0.54685263989529087,-7.31561825564861490E-002)   5.1595821521437895     
     Electronic Dipole per cell (Ry a.u.)  -109.08907851523809     
     Ionic Dipole per cell (Ry a.u.)   54330.804674140250     
Electronic Dipole on Cartesian axes
           1  -4.9247934592989582     
           2   3.6184510867310302     
           3  -109.08907851523809     
Ionic Dipole on Cartesian axes
           1   9289.0412334856428     
           2   15512.130366456693     
           3   54330.804674140250     

     total cpu time spent up to now is    21689.0 secs

     total energy              =   -2895.44239552 Ry
     estimated scf accuracy    <       0.00000756 Ry

     iteration # 11     ecut=    40.00 Ry     beta= 0.50
     Davidson diagonalization with overlap

---- Real-time Memory Report at c_bands before calling an iterative solver
           589 MiB given to the printing process from OS
           344 MiB allocation reported by mallinfo(arena+hblkhd)
        470609 MiB available memory on the node where the printing process lives
------------------
     ethr =  8.67E-10,  avg # of iterations =  6.0
     Davidson diagonalization with overlap

---- Real-time Memory Report at c_bands before calling an iterative solver
           589 MiB given to the printing process from OS
           344 MiB allocation reported by mallinfo(arena+hblkhd)
        470764 MiB available memory on the node where the printing process lives
------------------
     ethr =  8.67E-10,  avg # of iterations =  1.0
     Davidson diagonalization with overlap

---- Real-time Memory Report at c_bands before calling an iterative solver
           589 MiB given to the printing process from OS
           344 MiB allocation reported by mallinfo(arena+hblkhd)
        470119 MiB available memory on the node where the printing process lives
------------------
     ethr =  8.67E-10,  avg # of iterations =  1.0

     Expectation value of exp(iGx):  (1.57163319771091868E-005,-1.32206430711478227E-005)   1.0000000000000000     
     Electronic Dipole per cell (Ry a.u.)  -4.9147975638765873     
     Ionic Dipole per cell (Ry a.u.)   9289.0412334856428     

     Expectation value of exp(iGx):   (1.51565567052056938E-004,8.03314269454597402E-005)   1.0490058639940258     
     Electronic Dipole per cell (Ry a.u.)   3.5928222364550426     
     Ionic Dipole per cell (Ry a.u.)   15512.130366456693     

     Expectation value of exp(iGx):      (-0.54685039399766988,-7.31726408492781033E-002)   5.1595821521437895     
     Electronic Dipole per cell (Ry a.u.)  -109.08798686463057     
     Ionic Dipole per cell (Ry a.u.)   54330.804674140250     
Electronic Dipole on Cartesian axes
           1  -4.9147975638765873     
           2   3.5928222364550426     
           3  -109.08798686463057     
Ionic Dipole on Cartesian axes
           1   9289.0412334856428     
           2   15512.130366456693     
           3   54330.804674140250     

     total cpu time spent up to now is    23842.8 secs

     total energy              =   -2895.44239611 Ry
     estimated scf accuracy    <       0.00000147 Ry

     iteration # 12     ecut=    40.00 Ry     beta= 0.50
     Davidson diagonalization with overlap

---- Real-time Memory Report at c_bands before calling an iterative solver
           589 MiB given to the printing process from OS
           344 MiB allocation reported by mallinfo(arena+hblkhd)
        470598 MiB available memory on the node where the printing process lives
------------------
     ethr =  1.69E-10,  avg # of iterations =  6.0
[...]
   -15.6393 -15.6111 -15.5701 -15.5608 -15.5351 -15.5264 -15.4540 -15.3997
   -15.3421 -15.2766 -15.2595 -15.1830 -14.9492 -14.9270 -14.8925 -14.8584
   -14.4770 -14.4576 -14.3791 -14.2840 -14.1810 -14.1591 -14.0807 -14.0491
   -13.5611 -13.5155 -13.3876 -13.3360 -13.3179 -13.2140 -13.1618 -13.1316
   -13.1139 -13.0692 -13.0276 -13.0214 -12.9941 -12.9695 -12.9498 -12.8592
   -12.6920 -12.6725 -12.6585 -12.5783 -12.5316 -12.5229 -12.4995 -12.4623
   -12.2662 -12.2481 -12.1572 -12.1407 -12.0432 -11.9850 -11.9399 -11.9154
   -11.7354 -11.6802 -11.6211 -11.6057 -11.5815 -11.5593 -11.4595 -11.4330
   -10.9559 -10.8266 -10.8141 -10.7417 -10.6330 -10.6200 -10.5618 -10.5289
   -10.5101 -10.4844 -10.4552 -10.4301 -10.3430 -10.2997 -10.2464 -10.0855
   -10.0767 -10.0633 -10.0311  -9.9157  -9.6183  -9.5881  -9.5529  -9.5177
    -9.3502  -9.3265  -9.2593  -9.2503  -9.1469  -9.1274  -9.0712  -9.0406
    -9.0064  -8.9440  -8.9221  -8.8983  -8.7320  -8.6962  -8.6690  -8.6442
    -8.6133  -8.5812  -8.5588  -8.5081  -8.4479  -8.4128  -8.3963  -8.3598
    -8.1510  -8.1388  -8.1122  -8.0758  -7.9188  -7.8935  -7.8266  -7.7896
    -7.7578  -7.7334  -7.7083  -7.6806  -7.6275  -7.6114  -7.5758  -7.5389
    -7.5090  -7.4748  -7.4593  -7.3482  -7.0439  -7.0239  -7.0108  -6.8403
    -6.6615  -6.6462  -6.5997  -6.5323  -6.4877  -6.4791  -6.4473  -6.4207
    -6.3781  -6.3337  -6.2867  -6.2329  -6.1861  -6.1579  -6.1270  -6.1027
    -6.0776  -6.0633  -6.0343  -6.0190  -6.0020  -5.9627  -5.9257  -5.8650
    -5.8380  -5.7966  -5.7673  -5.7443  -5.7263  -5.6796  -5.6285  -5.6219
    -5.5404  -5.5175  -5.4642  -5.4265  -5.4078  -5.3824  -5.3581  -5.3464
    -5.3360  -5.3243  -5.3013  -5.2887  -5.2780  -5.2441  -5.2273  -5.1891
    -5.1642  -5.1545  -5.1469  -5.1125  -5.0779  -5.0722  -5.0424  -5.0213
    -5.0143  -4.9858  -4.9799  -4.9620  -4.9570  -4.9415  -4.9266  -4.9122
    -4.9021  -4.8878  -4.8816  -4.8671  -4.8544  -4.8435  -4.8251  -4.8120
    -4.7983  -4.7906  -4.7860  -4.7390  -4.7318  -4.7144  -4.6932  -4.6661
    -4.6420  -4.6220  -4.6184  -4.5537  -4.5431  -4.5103  -4.4719  -4.4616
    -4.4371  -4.4277  -4.4020  -4.3965  -4.3342  -4.3208  -4.3093  -4.2740
    -4.2656  -4.2564  -4.2413  -4.2257  -4.2075  -4.1812  -4.1726  -4.1641
    -4.1414  -4.1230  -4.1135  -4.0814  -4.0669  -4.0342  -4.0164  -3.9989
    -3.9951  -3.9865  -3.9668  -3.9497  -3.9247  -3.9214  -3.9110  -3.8995
    -3.8816  -3.8344  -3.8248  -3.7735  -3.7664  -3.7211  -3.7091  -3.6883
    -3.6778  -3.6456  -3.6312  -3.6061  -3.5615  -3.5264  -3.5209  -3.4869
    -3.4730  -3.4319  -3.4203  -3.3766  -3.3439  -3.3345  -3.3145  -3.2593
    -3.1563  -3.1081  -3.0707  -3.0569  -3.0452  -3.0005  -2.9805  -2.9513
    -2.9260  -2.8987  -2.8822  -2.8697  -2.8518  -2.8424  -2.8094  -2.8020
    -2.7917  -2.7654  -2.7213  -2.7012  -2.6682  -2.6596  -2.6322  -2.6143
    -2.5698  -2.4991  -2.4594  -2.4416  -2.4220  -2.3976  -2.3666  -2.3576
    -2.3357  -2.3141  -2.2928  -2.2616  -2.2410  -2.2296  -2.1981  -2.1473
    -2.0870  -2.0789  -2.0654  -2.0459  -2.0253  -1.9975  -1.9637  -1.9435
    -1.9285  -1.8847  -1.8490  -1.7953  -1.7669  -1.7249  -1.6948  -1.6745
    -1.5897  -1.5732  -1.5520  -1.5119  -1.4808  -1.4709  -1.4129  -1.3844
    -1.0529  -0.9474  -0.9055  -0.8964  -0.8018  -0.7860  -0.7766  -0.7509
    -0.7255  -0.7108  -0.7001  -0.6910  -0.6763  -0.6402  -0.6319  -0.6110
    -0.6070  -0.5647  -0.5491  -0.5354  -0.5122  -0.4978  -0.4834  -0.4660
    -0.4099  -0.3777  -0.3454  -0.3127  -0.2991  -0.2762  -0.2327  -0.2233
    -0.1744  -0.1408  -0.1279  -0.1116  -0.0953  -0.0860  -0.0770  -0.0673
    -0.0488  -0.0348  -0.0084   0.0688   0.3850   0.4284   0.5854   0.6232
     0.6702   0.7135   0.7343   0.7889   0.8070   0.8273   0.8838   0.9180
     1.0436   1.1432   1.1918   1.3598

     occupation numbers 
     1.0000   1.0000   1.0000   1.0000   1.0000   1.0000   1.0000   1.0000
     1.0000   1.0000   1.0000   1.0000   1.0000   1.0000   1.0000   1.0000
     1.0000   1.0000   1.0000   1.0000   1.0000   1.0000   1.0000   1.0000
     1.0000   1.0000   1.0000   1.0000   1.0000   1.0000   1.0000   1.0000
     1.0000   1.0000   1.0000   1.0000   1.0000   1.0000   1.0000   1.0000
     1.0000   1.0000   1.0000   1.0000   1.0000   1.0000   1.0000   1.0000
     1.0000   1.0000   1.0000   1.0000   1.0000   1.0000   1.0000   1.0000
     1.0000   1.0000   1.0000   1.0000   1.0000   1.0000   1.0000   1.0000
     1.0000   1.0000   1.0000   1.0000   1.0000   1.0000   1.0000   1.0000
     1.0000   1.0000   1.0000   1.0000   1.0000   1.0000   1.0000   1.0000
     1.0000   1.0000   1.0000   1.0000   1.0000   1.0000   1.0000   1.0000
     1.0000   1.0000   1.0000   1.0000   1.0000   1.0000   1.0000   1.0000
     1.0000   1.0000   1.0000   1.0000   1.0000   1.0000   1.0000   1.0000
     1.0000   1.0000   1.0000   1.0000   1.0000   1.0000   1.0000   1.0000
     1.0000   1.0000   1.0000   1.0000   1.0000   1.0000   1.0000   1.0000
     1.0000   1.0000   1.0000   1.0000   1.0000   1.0000   1.0000   1.0000
     1.0000   1.0000   1.0000   1.0000   1.0000   1.0000   1.0000   1.0000
     1.0000   1.0000   1.0000   1.0000   1.0000   1.0000   1.0000   1.0000
     1.0000   1.0000   1.0000   1.0000   1.0000   1.0000   1.0000   1.0000
     1.0000   1.0000   1.0000   1.0000   1.0000   1.0000   1.0000   1.0000
     1.0000   1.0000   1.0000   1.0000   1.0000   1.0000   1.0000   1.0000
     1.0000   1.0000   1.0000   1.0000   1.0000   1.0000   1.0000   1.0000
     1.0000   1.0000   1.0000   1.0000   1.0000   1.0000   1.0000   1.0000
     1.0000   1.0000   1.0000   1.0000   1.0000   1.0000   1.0000   1.0000
     1.0000   1.0000   1.0000   1.0000   1.0000   1.0000   1.0000   1.0000
     1.0000   1.0000   1.0000   1.0000   1.0000   1.0000   1.0000   1.0000
     1.0000   1.0000   1.0000   1.0000   1.0000   1.0000   1.0000   1.0000
     1.0000   1.0000   1.0000   1.0000   1.0000   1.0000   1.0000   1.0000
     1.0000   1.0000   1.0000   1.0000   1.0000   1.0000   1.0000   1.0000
     1.0000   1.0000   1.0000   1.0000   1.0000   1.0000   1.0000   1.0000
     1.0000   1.0000   1.0000   1.0000   1.0000   1.0000   1.0000   1.0000
     1.0000   1.0000   1.0000   1.0000   1.0000   1.0000   1.0000   1.0000
     1.0000   1.0000   1.0000   1.0000   1.0000   1.0000   1.0000   1.0000
     1.0000   1.0000   1.0000   1.0000   1.0000   1.0000   1.0000   1.0000
     1.0000   1.0000   1.0000   1.0000   1.0000   1.0000   1.0000   1.0000
     1.0000   1.0000   1.0000   1.0000   1.0000   1.0000   1.0000   1.0000
     1.0000   1.0000   1.0000   1.0000   1.0000   1.0000   1.0000   1.0000
     1.0000   1.0000   1.0000   1.0000   1.0000   1.0000   1.0000   1.0000
     1.0000   1.0000   1.0000   1.0000   1.0000   1.0000   1.0000   1.0000
     1.0000   1.0000   1.0000   1.0000   1.0000   1.0000   1.0000   1.0000
     1.0000   1.0000   1.0000   1.0000   1.0000   1.0000   1.0000   1.0000
     1.0000   1.0000   1.0000   1.0000   1.0000   1.0000   1.0000   1.0000
     1.0000   1.0000   1.0000   1.0000   1.0000   1.0000   1.0000   1.0000
     1.0000   1.0000   1.0000   1.0000   1.0000   1.0000   1.0000   1.0000
     1.0000   1.0000   1.0000   1.0000   1.0000   1.0000   1.0000   1.0000
     1.0000   1.0000   1.0000   1.0000   1.0000   1.0000   1.0000   1.0000
     1.0000   1.0000   1.0000   1.0000   1.0000   1.0000   1.0000   1.0000
     1.0000   1.0000   1.0000   1.0000   1.0000   1.0000   1.0000   1.0000
     1.0000   1.0000   1.0000   1.0000   1.0000   1.0000   1.0000   1.0000
     1.0000   1.0000   1.0000   1.0000   1.0000   1.0000   1.0000   1.0000
     1.0000   1.0000   1.0000   1.0000   1.0000   1.0000   1.0000   1.0000
     1.0000   1.0000   1.0000   1.0000   1.0000   1.0000   1.0000   1.0000
     1.0000   1.0000   1.0000   1.0000   1.0000   1.0000   1.0000   1.0000
     1.0000   1.0000   1.0000   1.0000   1.0000   1.0000   1.0000   1.0000
     1.0000   1.0000   1.0000   1.0000

          k = 0.6667 0.6355 0.0969 ( 87978 PWs)   bands (ev):

   -22.6512 -22.6104 -22.5837 -22.5836 -22.5756 -22.5499 -22.5012 -22.4473
   -21.4731 -21.3517 -21.3283 -21.2951 -21.2342 -21.2014 -21.1773 -21.1728
   -21.1006 -21.0846 -21.0796 -21.0653 -21.0384 -21.0168 -20.9925 -20.9646
   -16.7939 -16.7110 -16.6960 -16.6121 -16.5886 -16.5606 -16.5359 -16.4368
   -15.6394 -15.6110 -15.5711 -15.5620 -15.5352 -15.5226 -15.4576 -15.4003
   -15.3394 -15.2744 -15.2620 -15.1854 -14.9442 -14.9229 -14.8982 -14.8625
   -14.4718 -14.4378 -14.4077 -14.2978 -14.1559 -14.1241 -14.1088 -14.0670
   -13.5312 -13.5009 -13.4628 -13.3576 -13.2461 -13.1946 -13.1758 -13.1421
   -13.1287 -13.0670 -13.0416 -13.0103 -12.9947 -12.9687 -12.9497 -12.8598
   -12.6908 -12.6733 -12.6586 -12.5781 -12.5322 -12.5211 -12.5015 -12.4608
   -12.2586 -12.2357 -12.1861 -12.1558 -12.0257 -11.9653 -11.9407 -11.9254
   -11.7279 -11.6690 -11.6591 -11.6465 -11.5449 -11.5161 -11.4791 -11.4403
   -10.9560 -10.8267 -10.8143 -10.7418 -10.6353 -10.6183 -10.5665 -10.5225
   -10.5119 -10.4848 -10.4541 -10.4330 -10.3441 -10.3001 -10.2472 -10.0855
   -10.0772 -10.0624 -10.0317  -9.9162  -9.6102  -9.5825  -9.5585  -9.5383
    -9.3267  -9.3039  -9.2838  -9.2639  -9.1514  -9.1256  -9.0727  -9.0375
    -9.0052  -8.9433  -8.9193  -8.9015  -8.7321  -8.6873  -8.6719  -8.6485
    -8.6341  -8.5587  -8.5499  -8.5240  -8.4529  -8.4020  -8.3934  -8.3704
    -8.1547  -8.1373  -8.1136  -8.0715  -7.9236  -7.8676  -7.8393  -7.7978
    -7.7805  -7.7362  -7.6994  -7.6706  -7.6206  -7.6047  -7.5803  -7.5470
    -7.5081  -7.4762  -7.4588  -7.3498  -7.0440  -7.0248  -7.0112  -6.8418
    -6.6560  -6.6245  -6.6095  -6.5689  -6.4964  -6.4647  -6.4490  -6.3976
    -6.3679  -6.3390  -6.2980  -6.2499  -6.1734  -6.1610  -6.1192  -6.1050
    -6.0804  -6.0651  -6.0261  -6.0213  -6.0059  -5.9694  -5.9230  -5.8624
    -5.8374  -5.7986  -5.7683  -5.7438  -5.7290  -5.6787  -5.6304  -5.6204
    -5.5412  -5.5181  -5.4641  -5.4248  -5.4125  -5.3769  -5.3588  -5.3505
    -5.3343  -5.3247  -5.3087  -5.2861  -5.2805  -5.2338  -5.2297  -5.1900
    -5.1658  -5.1546  -5.1510  -5.1126  -5.0813  -5.0683  -5.0428  -5.0241
    -5.0114  -4.9865  -4.9788  -4.9646  -4.9546  -4.9469  -4.9296  -4.9085
    -4.9004  -4.8916  -4.8780  -4.8667  -4.8617  -4.8391  -4.8242  -4.8090
    -4.8007  -4.7909  -4.7892  -4.7396  -4.7330  -4.7157  -4.6927  -4.6661
    -4.6425  -4.6223  -4.6189  -4.5536  -4.5435  -4.5110  -4.4725  -4.4622
    -4.4388  -4.4267  -4.4040  -4.3952  -4.3343  -4.3210  -4.3100  -4.2735
    -4.2650  -4.2577  -4.2425  -4.2260  -4.2062  -4.1867  -4.1736  -4.1618
    -4.1402  -4.1222  -4.1162  -4.0786  -4.0674  -4.0329  -4.0216  -4.0014
    -3.9953  -3.9855  -3.9680  -3.9473  -3.9257  -3.9202  -3.9136  -3.8962
    -3.8827  -3.8348  -3.8259  -3.7752  -3.7657  -3.7218  -3.7086  -3.6897
    -3.6771  -3.6474  -3.6304  -3.6069  -3.5622  -3.5242  -3.5236  -3.4881
    -3.4725  -3.4298  -3.4232  -3.3773  -3.3436  -3.3351  -3.3146  -3.2597
    -3.1570  -3.1078  -3.0715  -3.0556  -3.0463  -3.0046  -2.9783  -2.9515
    -2.9252  -2.8991  -2.8848  -2.8666  -2.8592  -2.8301  -2.8197  -2.8001
    -2.7955  -2.7623  -2.7200  -2.6994  -2.6770  -2.6556  -2.6296  -2.6197
    -2.5708  -2.4872  -2.4681  -2.4486  -2.4205  -2.3913  -2.3714  -2.3579
    -2.3342  -2.3161  -2.2917  -2.2641  -2.2419  -2.2286  -2.1990  -2.1469
    -2.0872  -2.0808  -2.0621  -2.0481  -2.0264  -1.9973  -1.9647  -1.9434
    -1.9284  -1.8850  -1.8493  -1.7969  -1.7661  -1.7257  -1.6947  -1.6754
    -1.5904  -1.5730  -1.5534  -1.5120  -1.4807  -1.4717  -1.4132  -1.3844
    -1.0537  -0.9476  -0.9062  -0.8970  -0.8022  -0.7866  -0.7772  -0.7513
    -0.7256  -0.7109  -0.7017  -0.6911  -0.6768  -0.6401  -0.6320  -0.6118
    -0.6075  -0.5656  -0.5501  -0.5323  -0.5179  -0.4958  -0.4845  -0.4661
    -0.4105  -0.3779  -0.3453  -0.3137  -0.2988  -0.2767  -0.2332  -0.2239
    -0.1751  -0.1413  -0.1286  -0.1135  -0.0959  -0.0869  -0.0772  -0.0682
    -0.0495  -0.0352  -0.0093   0.0684   0.3850   0.4278   0.5861   0.6213
     0.6715   0.7115   0.7357   0.7900   0.8027   0.8286   0.8842   0.9173
     1.0431   1.1431   1.1914   1.3594

     occupation numbers 
     1.0000   1.0000   1.0000   1.0000   1.0000   1.0000   1.0000   1.0000
     1.0000   1.0000   1.0000   1.0000   1.0000   1.0000   1.0000   1.0000
     1.0000   1.0000   1.0000   1.0000   1.0000   1.0000   1.0000   1.0000
     1.0000   1.0000   1.0000   1.0000   1.0000   1.0000   1.0000   1.0000
     1.0000   1.0000   1.0000   1.0000   1.0000   1.0000   1.0000   1.0000
     1.0000   1.0000   1.0000   1.0000   1.0000   1.0000   1.0000   1.0000
     1.0000   1.0000   1.0000   1.0000   1.0000   1.0000   1.0000   1.0000
     1.0000   1.0000   1.0000   1.0000   1.0000   1.0000   1.0000   1.0000
     1.0000   1.0000   1.0000   1.0000   1.0000   1.0000   1.0000   1.0000
     1.0000   1.0000   1.0000   1.0000   1.0000   1.0000   1.0000   1.0000
     1.0000   1.0000   1.0000   1.0000   1.0000   1.0000   1.0000   1.0000
     1.0000   1.0000   1.0000   1.0000   1.0000   1.0000   1.0000   1.0000
     1.0000   1.0000   1.0000   1.0000   1.0000   1.0000   1.0000   1.0000
     1.0000   1.0000   1.0000   1.0000   1.0000   1.0000   1.0000   1.0000
     1.0000   1.0000   1.0000   1.0000   1.0000   1.0000   1.0000   1.0000
     1.0000   1.0000   1.0000   1.0000   1.0000   1.0000   1.0000   1.0000
     1.0000   1.0000   1.0000   1.0000   1.0000   1.0000   1.0000   1.0000
     1.0000   1.0000   1.0000   1.0000   1.0000   1.0000   1.0000   1.0000
     1.0000   1.0000   1.0000   1.0000   1.0000   1.0000   1.0000   1.0000
     1.0000   1.0000   1.0000   1.0000   1.0000   1.0000   1.0000   1.0000
     1.0000   1.0000   1.0000   1.0000   1.0000   1.0000   1.0000   1.0000
     1.0000   1.0000   1.0000   1.0000   1.0000   1.0000   1.0000   1.0000
     1.0000   1.0000   1.0000   1.0000   1.0000   1.0000   1.0000   1.0000
     1.0000   1.0000   1.0000   1.0000   1.0000   1.0000   1.0000   1.0000
     1.0000   1.0000   1.0000   1.0000   1.0000   1.0000   1.0000   1.0000
     1.0000   1.0000   1.0000   1.0000   1.0000   1.0000   1.0000   1.0000
     1.0000   1.0000   1.0000   1.0000   1.0000   1.0000   1.0000   1.0000
     1.0000   1.0000   1.0000   1.0000   1.0000   1.0000   1.0000   1.0000
     1.0000   1.0000   1.0000   1.0000   1.0000   1.0000   1.0000   1.0000
     1.0000   1.0000   1.0000   1.0000   1.0000   1.0000   1.0000   1.0000
     1.0000   1.0000   1.0000   1.0000   1.0000   1.0000   1.0000   1.0000
     1.0000   1.0000   1.0000   1.0000   1.0000   1.0000   1.0000   1.0000
     1.0000   1.0000   1.0000   1.0000   1.0000   1.0000   1.0000   1.0000
     1.0000   1.0000   1.0000   1.0000   1.0000   1.0000   1.0000   1.0000
     1.0000   1.0000   1.0000   1.0000   1.0000   1.0000   1.0000   1.0000
     1.0000   1.0000   1.0000   1.0000   1.0000   1.0000   1.0000   1.0000
     1.0000   1.0000   1.0000   1.0000   1.0000   1.0000   1.0000   1.0000
     1.0000   1.0000   1.0000   1.0000   1.0000   1.0000   1.0000   1.0000
     1.0000   1.0000   1.0000   1.0000   1.0000   1.0000   1.0000   1.0000
     1.0000   1.0000   1.0000   1.0000   1.0000   1.0000   1.0000   1.0000
     1.0000   1.0000   1.0000   1.0000   1.0000   1.0000   1.0000   1.0000
     1.0000   1.0000   1.0000   1.0000   1.0000   1.0000   1.0000   1.0000
     1.0000   1.0000   1.0000   1.0000   1.0000   1.0000   1.0000   1.0000
     1.0000   1.0000   1.0000   1.0000   1.0000   1.0000   1.0000   1.0000
     1.0000   1.0000   1.0000   1.0000   1.0000   1.0000   1.0000   1.0000
     1.0000   1.0000   1.0000   1.0000   1.0000   1.0000   1.0000   1.0000
     1.0000   1.0000   1.0000   1.0000   1.0000   1.0000   1.0000   1.0000
     1.0000   1.0000   1.0000   1.0000   1.0000   1.0000   1.0000   1.0000
     1.0000   1.0000   1.0000   1.0000   1.0000   1.0000   1.0000   1.0000
     1.0000   1.0000   1.0000   1.0000   1.0000   1.0000   1.0000   1.0000
     1.0000   1.0000   1.0000   1.0000   1.0000   1.0000   1.0000   1.0000
     1.0000   1.0000   1.0000   1.0000   1.0000   1.0000   1.0000   1.0000
     1.0000   1.0000   1.0000   1.0000   1.0000   1.0000   1.0000   1.0000
     1.0000   1.0000   1.0000   1.0000   1.0000   1.0000   1.0000   1.0000
     1.0000   1.0000   1.0000   1.0000

     highest occupied level (ev):     1.4362

!    total energy              =   -2895.44239624 Ry
     estimated scf accuracy    <       0.00000042 Ry

     The total energy is the sum of the following terms:
     one-electron contribution =   -3118.48424070 Ry
     hartree contribution      =    1859.96640279 Ry
     xc contribution           =    -937.83088536 Ry
     ewald contribution        =    -644.87195474 Ry

     convergence has been achieved in  12 iterations

     Writing all to output data dir ./tmp/PEI.save/ :
     XML data file, charge density, pseudopotentials, collected wavefunctions

     init_run     :     33.51s CPU     44.22s WALL (       1 calls)
     electrons    :  19892.77s CPU  26016.52s WALL (       1 calls)

     Called by init_run:
     wfcinit      :     32.09s CPU     42.69s WALL (       1 calls)
     wfcinit:atom :      0.06s CPU      0.09s WALL (      18 calls)
     wfcinit:wfcr :     31.39s CPU     41.51s WALL (      18 calls)
     potinit      :      0.01s CPU      0.02s WALL (       1 calls)
     hinit0       :      0.90s CPU      0.96s WALL (       1 calls)

     Called by electrons:
     c_bands      :  15267.08s CPU  21356.88s WALL (      36 calls)
     sum_band     :     21.77s CPU     50.79s WALL (      12 calls)
     v_of_rho     :      0.10s CPU      0.15s WALL (      13 calls)
     v_h          :      0.01s CPU      0.02s WALL (      13 calls)
     v_xc         :      0.09s CPU      0.13s WALL (      13 calls)
     mix_rho      :      0.03s CPU      0.05s WALL (      12 calls)

     Called by c_bands:
     init_us_2    :     15.10s CPU     15.13s WALL (     882 calls)
     cegterg      :  15227.48s CPU  21314.57s WALL (     648 calls)

     Called by sum_band:
     sum_band:wei :      0.00s CPU      0.00s WALL (      12 calls)
     sum_band:loo :     21.76s CPU     50.76s WALL (      12 calls)
     sum_band:buf :      0.50s CPU      0.55s WALL (     216 calls)
     sum_band:ini :      3.47s CPU      3.47s WALL (     216 calls)

     Called by *egterg:
     cdiaghg      :   1086.90s CPU   1149.72s WALL (    2252 calls)
     cegterg:over :     93.58s CPU     94.80s WALL (    1640 calls)
     cegterg:upda :     48.01s CPU     48.41s WALL (    1640 calls)
     cegterg:last :     57.96s CPU     58.17s WALL (     864 calls)
     cdiaghg:chol :     24.12s CPU     24.34s WALL (    2252 calls)
     cdiaghg:inve :      4.84s CPU      5.68s WALL (    2252 calls)
     cdiaghg:para :     76.51s CPU     76.60s WALL (    4504 calls)
     h_psi        :  13936.42s CPU  19967.56s WALL (    2306 calls)
     g_psi        :      0.44s CPU      0.57s WALL (    1640 calls)

     Called by h_psi:
     h_psi:calbec :    305.68s CPU    305.71s WALL (    2306 calls)
     vloc_psi     :    241.43s CPU    634.37s WALL (    2306 calls)
     add_vuspsi   :    169.50s CPU    169.72s WALL (    2306 calls)

     General routines
     calbec       :    305.66s CPU    305.69s WALL (    2306 calls)
     fft          :      0.96s CPU      1.05s WALL (     130 calls)
     ffts         :      0.01s CPU      0.01s WALL (      12 calls)
     fftw         :    249.38s CPU    668.21s WALL ( 1383968 calls)

     Parallel routines

     Electric-field routines
     h_epsi_set   :    793.75s CPU    797.63s WALL (      36 calls)
     h_epsi_apply :  13217.61s CPU  18855.41s WALL (    2288 calls)
     c_phase_fiel :   3809.97s CPU   3810.47s WALL (      36 calls)

     PWSCF        :      5h32m CPU      7h15m WALL


   This run was terminated on:   2:19:47  31Oct2024            

=------------------------------------------------------------------------------=
   JOB DONE.
=------------------------------------------------------------------------------=

MPICH Slingshot Network Summary: 2 network timeouts

