5160
 Atoms. Timestep: 0
2 4.6855 321.849 7.37183
1 4.70897 321.004 7.99934
1 3.48583 320.247 8.14275
2 6.91271 317.231 9.70072
2 6.77862 321.385 8.64746
2 1.00032 319.756 11.1026
1 5.86616 320.763 8.76895
1 3.62373 319.111 9.02885
2 2.82523 318.453 9.19513
1 5.90062 319.658 9.74687
1 7.71909 317.935 9.91834
1 4.71343 318.773 9.8552
2 0.0761213 318.176 8.94549
1 0.121795 320.275 10.6691
2 0.306075 317.454 10.592
2 4.75963 317.875 10.4718
1 7.06811 319.24 10.5768
2 0.442394 320.659 9.65511
2 7.95991 321.097 11.2703
1 6.61669 319.005 12.0402
2 7.33371 316.916 12.4557
2 5.77385 321.097 12.0703
1 6.70966 317.791 12.7998
1 5.86956 320.161 12.6284
1 6.01881 317.654 14.031
1 5.08182 319.987 13.7815
2 6.11224 316.666 14.5512
2 4.443 320.797 14.1615
1 5.13614 318.72 14.4606
3 4.27646 318.431 15.4011
2 5.96434 320.274 16.2023
1 3.92843 319.518 16.212
1 4.95843 320.422 16.6121
2 1.80182 318.954 16.4899
1 2.60866 319.624 16.8098
1 4.78281 321.509 17.5539
2 5.6557 322.18 17.8995
1 2.38819 320.583 17.8253
1 3.46529 321.578 18.2304
1 1.15626 320.765 18.6715
3 0.0893743 320.272 18.5729
1 2.94838 322.365 19.375
4 1.54512 321.955 19.6944
3 3.60103 -1.70942 20.0423
2 6.98695 321.749 20.1352
1 0.731107 -2.38596 20.8316
1 7.47342 322.336 20.9133
2 2.40718 -1.35517 21.9545
1 1.29579 -1.5526 21.8712
1 6.74634 -2.04006 22.0254
2 5.66568 -2.1793 21.9986
1 0.648454 -0.9494 22.9786
1 7.33777 -1.18321 22.9626
3 3.57379 -0.0616308 23.2617
4 1.30523 -0.241756 24.1425
2 6.62646 -0.744404 23.7092
1 2.86455 -0.0792211 24.205
3 7.69912 -0.4358 25.9209
1 0.703373 -0.200839 25.5697
1 3.1297 0.276327 25.6667
1 1.85337 0.278596 26.4599
2 5.20001 0.973295 25.6587
1 4.31895 0.887863 26.264
1 1.87221 0.715811 27.8517
2 0.976173 0.635744 28.4417
1 4.35073 1.17802 27.6189
1 3.11935 1.08789 28.4194
2 5.29436 1.5239 28.0491
2 3.26727 2.73436 31.8608
3 2.99789 1.62137 29.6741
1 3.96772 1.87849 31.7702
1 3.98322 1.20744 30.4794
2 4.67381 1.98565 33.8687
2 6.89751 -2.0022 33.5339
2 7.78671 1.17166 35.3636
1 4.76806 1.52468 32.8965
1 4.96388 0.110819 30.3851
2 5.04919 -0.398931 29.4235
1 7.47677 -1.10682 33.9027
1 5.70174 0.421692 32.7319
1 7.43067 1.30734 34.3214
2 0.0711612 -0.934809 33.1572
1 5.74662 -0.313017 31.4583
2 0.140151 1.28298 33.6478
2 7.89775 -1.36869 34.8775
2 6.96859 2.31637 34.2926
1 6.48676 0.110023 33.9979
2 6.39863 -1.16424 31.3913
1 5.46094 -0.266152 35.022
2 6.40655 0.699628 36.7687
2 4.21708 -1.45521 33.587
1 5.54508 0.170326 36.4169
1 4.31419 -1.08707 34.6287
1 4.51212 -0.160779 37.3077
1 3.28291 -1.40077 35.5277
2 4.64348 0.0793003 38.3725
2 2.48244 -1.99233 35.1509
1 3.31982 -0.898853 36.9086
3 2.29944 -1.23019 37.7067
2 4.53601 -1.94952 39.1339
1 2.52121 -1.2203 39.0294
1 3.71234 -1.65384 39.738
2 0.432712 -0.544167 39.2264
1 1.28632 -0.930922 39.7625
1 3.67155 -1.98271 41.096
2 4.51714 -2.41329 41.6273
1 1.31188 -1.19127 41.1471
1 2.50122 -1.74383 41.8661
1 0.0964294 -0.95162 42.1551
3 7.15078 -0.659781 41.7719
1 2.06573 -1.9523 43.3059
4 0.709959 -1.25802 43.5681
3 2.72263 322.405 44.1298
1 7.94881 -1.60709 44.7495
2 1.60007 -2.3763 45.8267
2 6.04244 -1.02988 43.9471
1 0.483776 -2.18367 45.894
1 6.58001 -1.31402 44.8606
1 7.97575 -2.42764 0.432253
1 5.85593 -1.56213 46.0686
2 4.79994 -1.2835 46.0353
3 7.05224 322.056 3.42283
1 6.59513 -2.0252 0.500125
4 0.604741 321.939 1.58924
1 0.0328932 321.879 3.04412
3 2.95523 321.94 0.9448
1 2.14508 321.736 1.75474
2 6.02799 -2.20034 1.43992
1 1.14386 321.414 4.04207
1 2.36309 321.281 3.21877
2 0.272982 321.1 6.05611
1 1.14856 321.062 5.41872
1 3.61456 320.872 3.83658
2 4.57745 320.824 3.26438
1 2.42334 320.743 6.08271
1 3.61821 320.701 5.2537
3 2.38375 320.519 7.38084
2 4.59624 320.442 5.66603
2 6.98985 1.89804 3.05044
1 7.94126 1.5079 2.64404
1 7.98949 1.39526 1.19273
2 3.93586 -1.37611 2.70093
2 0.844384 1.42902 4.50749
2 5.00512 2.30272 4.05031
1 0.909963 1.21428 3.47833
1 1.04403 0.793475 0.58206
2 1.17959 0.781782 46.1565
1 2.15259 0.743683 2.84899
1 4.45947 -0.432604 2.87098
1 2.15342 0.500675 1.40362
2 4.84031 -0.00606729 1.91347
1 4.28544 1.93211 3.3274
2 5.35615 -0.693904 3.51986
2 3.05716 0.0535099 0.957514
1 3.48337 0.661584 3.60355
2 3.35849 5.07306 2.70625
2 4.0353 2.58102 2.42227
1 3.40803 0.284664 5.06758
2 1.45148 -0.786961 4.98833
2 5.41114 1.07537 5.63993
1 2.28405 -0.467453 5.66155
1 4.49541 0.527362 6.0238
1 2.25102 -0.720048 7.08096
1 4.49284 0.159439 7.38829
2 1.39373 -1.23807 7.46882
2 5.3222 0.352405 8.07903
1 3.36759 -0.5581 7.9549
3 3.46535 -1.24118 9.09896
2 3.88568 321.992 10.8147
1 2.43351 -1.66789 9.87795
1 2.95309 -2.41621 11.0087
2 0.76703 -0.566219 9.16372
1 1.14356 -1.08865 9.98381
1 2.2331 322.322 12.2224
2 2.64138 321.78 13.0282
1 0.339793 -1.26474 11.1585
1 0.917422 -2.0078 12.3459
1 7.08365 -0.790642 11.6023
3 6.29075 -0.395203 10.7825
1 -0.0426885 -2.02856 13.5288
4 6.85027 -1.13934 13.1201
3 -0.046496 322.136 14.4322
2 4.31658 -0.50891 12.2332
1 5.67747 -0.832155 13.9927
1 4.39571 -0.579552 13.3822
2 6.73888 -1.20223 15.8847
1 5.81408 -0.818441 15.411
1 3.31801 -0.25411 14.2784
2 2.35768 -0.00338592 13.8738
1 4.80664 -0.352702 16.2966
1 3.51794 -0.198595 15.7182
3 6.88545 -1.12685 18.6562
4 5.00542 0.18675 17.6897
2 2.62789 0.0997042 16.2956
1 6.21158 -0.121994 18.6005
3 3.49299 2.17224 17.8078
1 4.35923 1.49501 18.2981
1 6.3754 0.938617 19.6317
1 5.16522 1.90853 19.4607
2 0.110676 0.614383 20.7303
1 7.35816 1.24239 20.6409
1 5.0036 3.04089 20.3246
2 4.17257 3.75433 20.274
1 7.09295 2.3587 21.478
1 6.01737 3.31695 21.3168
2 7.87724 2.64006 22.1955
2 5.24748 3.24585 23.8929
3 6.16514 4.58156 21.7456
1 6.05295 3.95874 24.0794
1 6.65725 4.73402 22.983
2 6.16966 3.3375 26.2053
2 1.87379 3.47573 26.9561
2 1.29094 6.05756 28.435
1 6.61176 3.98519 25.3611
1 7.6982 5.68474 23.3784
2 8.03018 6.35279 22.5849
1 0.884779 3.46981 27.4595
1 7.73731 4.83186 25.7017
1 0.947387 6.05016 27.4077
2 1.13019 3.21708 28.5475
1 0.171468 5.71679 24.6516
2 1.84462 6.03266 26.7543
2 0.376179 2.5377 27.0257
2 0.445327 6.94938 27.0452
1 0.0267519 4.81269 27.1405
2 1.01066 6.38553 24.7359
1 6.98815 4.8573 28.0966
2 5.84234 6.34436 26.9382
2 7.8007 3.34985 29.487
1 5.87717 5.77766 27.8366
1 6.96813 4.04108 29.3241
1 4.84609 5.86744 28.8128
1 5.93115 4.12188 30.2802
2 3.95712 6.5745 28.6177
2 6.0015 3.50139 31.1853
1 4.87037 5.12092 30.0805
3 3.98607 5.44058 31.0094
2 6.39882 5.27376 32.2096
1 4.27754 5.00265 32.274
1 5.62092 4.94886 32.8308
2 2.11755 4.56193 32.8369
1 3.20443 4.59633 33.1707
1 5.91643 4.46193 34.121
2 6.97209 4.39884 34.4501
1 3.44597 4.25081 34.5334
1 4.84503 4.16179 35.055
1 2.46749 3.7265 35.6041
3 1.32785 3.58479 35.3869
1 4.82533 3.67703 36.4855
4 3.43316 3.44243 36.9136
3 5.85923 3.37276 37.1619
1 2.99572 2.79677 38.2257
2 4.88251 2.84162 39.2913
2 1.01394 2.47748 37.596
1 3.82796 2.66815 39.392
1 1.66555 2.40951 38.4633
1 3.33323 2.39961 40.7262
1 1.07906 2.14795 39.7155
2 0.0211229 2.01807 39.8745
3 2.78058 1.66529 43.8189
1 1.97668 2.10275 40.8479
4 4.23002 2.60557 41.8961
1 3.80992 2.02404 43.3586
3 6.4159 3.01743 40.8947
1 5.73633 2.84372 41.8928
2 1.5878 1.9086 41.8984
1 5.1596 2.1346 44.1298
1 6.29462 2.63877 43.2836
2 4.66578 1.43006 46.0959
1 5.46743 1.76827 45.4808
1 7.61564 2.85596 43.8167
2 0.333685 3.22588 43.151
1 6.79227 2.04522 46.0384
1 7.84403 2.58516 45.1659
3 6.78541 1.70744 0.620898
2 0.713059 2.71666 45.5456
2 2.7894 2.41968 14.0989
1 3.80191 2.51584 13.6007
1 3.99029 2.13792 12.2069
2 0.373276 1.62202 15.9593
2 4.67336 3.18726 15.4711
2 0.365195 4.79883 13.5994
1 4.855 2.90498 14.4703
1 5.35744 2.08188 11.7425
2 5.56551 1.76023 10.7016
1 6.24905 2.93903 13.9785
1 7.54664 2.0739 15.811
1 6.39189 2.49392 12.6244
2 4.19538 -1.20135 19.3659
1 0.540694 3.91545 14.2372
2 6.76898 1.4866 16.2186
2 7.41652 2.4097 12.1859
1 7.33428 3.35625 14.9316
2 1.23701 4.35082 14.9584
2 1.00005 3.18381 13.6203
1 6.78396 4.48293 15.7577
2 6.10903 5.56577 13.9642
2 7.19573 3.57971 17.7976
1 6.18105 5.56585 15.0549
1 6.83064 4.46049 17.217
1 5.65952 6.65968 15.8188
1 6.3803 5.54933 17.9677
2 5.21521 7.50621 15.3582
2 6.47708 5.5717 19.0665
1 5.80257 6.69069 17.2494
3 5.32879 7.77373 17.8092
2 7.65143 8.07764 19.3613
1 5.45176 7.97411 19.2194
1 6.65586 8.16771 19.9015
2 3.20277 7.97879 19.2023
1 4.14039 8.00203 19.8203
1 6.61011 8.23087 21.3587
2 7.52744 8.32329 21.8954
1 4.07262 8.23265 21.219
1 5.35662 8.30081 22.0234
1 2.85378 8.41334 22.1374
3 1.73526 8.48371 21.7832
1 4.99687 8.60956 23.48
4 3.452 8.54765 23.6267
3 5.86021 8.74864 24.2977
2 0.693142 9.01642 23.9915
1 2.72377 8.80487 24.8936
1 1.30612 9.08993 24.8633
2 4.49869 8.86395 26.1457
1 3.3732 9.02057 26.1615
1 0.651512 9.49934 26.0279
2 7.67395 9.69846 26.0571
1 2.75003 9.44106 27.3728
1 1.36221 9.69786 27.2613
3 5.81449 8.89977 28.1802
4 3.48413 9.51247 28.7132
2 0.764788 9.9274 28.1541
1 4.97097 9.10378 28.9679
3 1.73986 10.2362 30.2859
1 2.85837 9.90419 30.0683
1 5.22968 9.23597 30.513
1 3.99032 9.64868 31.1075
2 7.33437 8.5181 30.9491
1 6.32747 8.79358 31.3879
1 3.82291 9.68161 32.5713
2 2.89341 9.98051 33.0261
1 6.09933 8.84428 32.7801
1 4.90684 9.31863 33.4326
2 6.99765 8.51319 33.422
2 5.83894 7.117 34.5477
3 4.88428 9.64878 34.7894
1 6.13629 7.63513 35.4797
1 5.68288 9.01764 35.6416
2 7.07602 5.85636 36.415
2 6.7558 3.44916 36.6312
2 1.77932 7.62535 39.0027
1 6.91817 6.93645 36.4627
1 6.14761 9.7551 36.8101
2 5.98014 10.8236 36.9475
1 0.106773 5.52992 38.5401
1 7.29504 7.70345 37.6759
1 0.86357 7.81265 39.5638
2 0.947411 5.22229 37.9483
1 6.88325 9.09249 37.7927
2 0.663707 8.91615 39.6196
2 7.65161 4.66563 38.8202
2 1.03693 7.46958 40.6159
1 7.81295 6.97664 38.9058
2 7.16762 9.69441 38.7326
1 6.59232 6.96722 39.7725
2 7.29021 8.23336 41.4433
2 5.37717 5.92534 38.2179
1 6.36408 7.66369 41.016
1 5.38131 6.33819 39.2006
1 5.14394 7.6145 41.7188
1 4.19682 6.26294 39.942
2 5.10627 8.1442 42.6675
2 3.30532 5.79781 39.4476
1 3.96878 6.90421 41.2485
3 2.90953 6.55326 41.9666
2 5.08533 5.75152 43.4169
1 2.99517 6.25305 43.323
1 4.16644 5.77056 43.9865
2 0.82131 6.8025 43.6116
1 1.76867 6.36194 44.0603
1 4.14332 5.36525 45.3585
2 5.01701 4.9721 45.7811
1 1.69384 5.87787 45.4256
1 2.95105 5.46549 46.1369
1 0.450653 5.70678 -0.344899
3 7.39343 5.93961 46.0157
1 2.60068 5.10196 0.849637
4 1.12126 5.19337 0.889082
3 3.4864 4.72804 1.73172
1 0.323301 4.79866 2.01857
2 1.99309 4.12457 3.29912
2 6.45219 5.32944 1.18489
1 0.931638 4.31157 3.27078
1 7.00052 4.95843 2.0774
1 0.285462 3.89893 4.48823
1 6.29955 4.64607 3.2602
2 5.24674 4.72963 3.26465
3 7.56387 2.36471 7.17013
1 6.99052 4.1574 4.43334
4 1.09388 3.39667 5.64421
1 0.554662 2.77117 6.96219
3 3.37398 4.29722 5.18888
1 2.55685 3.88042 5.9883
2 6.49269 4.00149 5.33115
1 1.73372 2.8505 7.95044
1 2.9207 3.61457 7.416
2 0.889823 1.75919 9.67904
1 1.75809 2.30165 9.27967
1 4.08889 3.82945 8.27921
2 4.97702 4.37133 7.97745
1 2.88042 2.45216 10.1527
1 3.93771 3.24898 9.60107
3 2.86904 1.9369 11.4352
2 4.78281 3.5235 10.2152
2 5.42799 8.82781 11.4145
1 6.23162 8.18285 11.1403
1 5.97753 7.05339 10.2307
2 2.82769 6.20048 11.1828
2 7.52697 9.2213 12.4675
2 3.54565 8.83831 11.3145
1 7.50312 8.34192 11.7682
1 7.07553 6.13828 10.1342
2 6.94854 5.21714 9.56563
1 0.506476 7.40532 11.5413
1 2.81242 6.6139 12.2012
1 0.250124 6.23942 10.6795
2 3.78849 6.89713 12.5177
1 2.46636 8.86176 11.2092
2 2.52875 5.74519 12.8149
2 1.03792 5.47637 10.5245
1 1.7594 7.79582 12.1907
2 2.2417 8.56988 10.185
2 2.05709 9.88622 11.4059
1 1.65364 8.28852 13.5956
2 3.35436 9.69929 13.3661
2 0.0168348 6.96425 14.1659
1 2.60923 9.25355 14.0383
1 0.702014 7.7083 14.5193
1 2.68635 9.66359 15.3934
1 0.698287 8.218 15.8239
2 3.36752 10.4256 15.7755
2 -0.0152583 7.81836 16.5096
1 1.67991 9.15778 16.3472
3 1.5903 9.82231 17.5106
2 7.21232 10.1138 16.1544
1 0.36652 10.2564 17.9472
1 7.26044 10.2876 17.1897
2 1.22638 10.9782 19.8435
1 0.294336 10.8566 19.281
1 5.99144 10.6771 17.7275
2 5.11753 10.6882 17.0775
1 7.20815 11.1417 19.9279
1 5.91924 11.0232 19.1478
1 6.95438 11.5874 21.3757
3 7.64649 11.5162 22.3252
1 4.83838 11.485 20.101
4 5.42728 11.9013 21.4714
3 3.66571 11.4322 19.8866
2 2.79692 11.6114 21.9337
1 4.73229 11.9994 22.821
1 3.28511 11.8514 22.8468
2 6.46262 12.4515 24.0379
1 5.37636 12.3173 24.0151
1 2.54034 12.045 24.0187
2 1.4403 11.9565 24.0181
1 4.66079 12.5108 25.2607
1 3.2695 12.4298 25.2068
3 7.76634 12.2286 26.0706
4 5.34773 12.4838 26.6005
2 2.65963 12.6457 26.1359
1 6.8805 12.229 26.8816
3 3.7196 13.6338 27.9665
1 4.73292 13.0582 27.8943
1 7.12523 12.5134 28.3613
1 5.84701 13.0466 28.973
2 1.04684 12.0978 28.8592
1 0.105782 12.4488 29.2752
1 5.7262 13.3792 30.3495
2 4.7133 13.6662 30.7287
1 -0.00212186 12.8859 30.6158
1 6.8913 13.3612 31.2112
2 0.866978 12.9084 31.2489
2 7.57766 11.3243 33.1077
3 6.82764 13.9178 32.4422
1 8.02166 12.1982 33.6919
1 7.92695 13.5008 33.2337
2 0.470428 10.8754 35.2209
2 1.93896 10.3438 36.8145
2 2.33087 14.282 38.6698
1 0.47377 11.8975 35.0043
1 0.385549 14.4994 34.0867
2 0.394064 15.5356 33.6977
1 2.51655 11.2589 37.0549
1 1.04878 12.905 35.8353
1 2.51283 13.7438 37.7042
2 3.23956 11.4109 36.2358
1 0.943276 14.2853 35.3942
2 3.26404 14.1064 37.1034
2 3.06082 11.0847 37.9497
2 4.14234 17.0543 38.7733
1 1.63494 12.5767 37.2135
2 1.34627 15.1605 35.9433
1 0.477689 12.3366 38.1918
2 7.2351 13.3077 36.7908
2 1.60056 11.4694 39.8979
1 7.27855 12.8189 37.7605
1 0.612775 11.6962 39.4898
1 6.16918 12.7633 38.6006
1 7.59072 11.5078 40.2446
2 5.24613 13.2046 38.2865
2 7.72542 10.9294 41.2006
1 6.26683 12.0036 39.8318
3 5.08254 11.6318 40.3198
2 6.72148 12.5752 42.3031
1 4.96106 11.4703 41.6528
1 5.94929 11.911 42.6295
2 2.94949 10.5474 41.4078
1 3.77123 10.7727 42.1136
1 5.94557 11.4142 43.9495
2 6.78076 11.6822 44.6326
1 3.65238 10.3832 43.4493
1 4.78849 10.6969 44.4149
1 2.48774 9.81661 44.3164
3 1.34383 9.72363 44.0223
1 4.42199 10.1799 45.7733
4 3.06649 9.3463 45.6454
3 5.13593 10.3026 0.0376866
1 2.21266 8.95325 0.124693
2 3.88322 8.29304 1.30181
2 0.213464 9.53084 46.1927
1 2.7954 8.44812 1.31434
1 0.789886 9.09866 0.286283
1 2.23862 8.00584 2.54713
1 0.106489 8.82948 1.48929
2 7.1323 8.98681 1.53377
3 1.29984 6.78022 5.38657
1 0.822958 8.26445 2.59437
4 3.00353 7.40363 3.69398
1 2.44321 7.04203 5.09699
3 5.33204 8.03949 3.05952
1 4.53886 7.68897 3.89999
2 0.246572 7.98409 3.4567
1 3.59169 7.10057 6.12868
1 4.84241 7.54246 5.3996
2 2.87594 6.44455 8.04512
1 3.68181 6.85745 7.5152
1 6.07977 7.70497 6.08857
2 7.03106 8.00039 5.54638
1 4.94607 7.01338 8.22671
1 6.09899 7.43622 7.5232
3 4.81657 6.92654 9.58789
2 7.08252 7.49227 8.01898
2 3.80905 16.0337 3.79488
1 4.51659 15.352 3.33878
1 4.35504 15.1298 1.9239
2 7.74601 11.3297 3.45377
2 5.62637 14.7669 5.13083
2 0.892785 14.9794 3.79378
1 5.55891 14.7067 4.04378
1 5.27467 14.242 1.22969
2 5.20977 14.089 0.162903
1 6.4995 13.795 3.34866
1 0.253411 12.1478 3.73275
1 6.31952 13.5601 1.94736
2 0.829651 12.4699 2.86632
1 0.455852 14.5288 4.71422
2 1.01705 11.8385 4.5094
2 7.04112 12.9104 1.42424
1 7.53622 13.3592 4.37123
2 0.0461316 15.3886 5.28509
2 1.29481 14.1434 5.38834
1 6.82411 12.8464 5.55922
2 5.63663 11.5266 4.22391
2 7.6561 14.0251 7.1786
1 5.81078 11.8242 5.2767
1 6.89959 13.33 6.95201
1 5.0235 11.2582 6.28162
1 6.08762 12.7948 7.9096
2 4.25497 10.5178 5.95681
2 6.17756 13.1674 8.95206
1 5.03126 11.7825 7.65359
3 4.17435 11.2629 8.49306
2 6.19298 10.9286 10.1287
1 4.13356 11.683 9.84616
1 5.2862 11.3301 10.636
2 2.18192 12.5974 9.86606
1 3.09049 12.336 10.4345
1 5.43304 11.5966 12.022
2 6.36477 11.4046 12.5367
1 3.05568 12.547 11.922
1 4.31167 12.1442 12.7093
1 1.96791 12.9313 12.8159
3 0.832276 13.0149 12.4316
1 4.00446 12.4973 14.1681
4 2.53939 12.9802 14.2991
3 4.76903 12.3956 15.0919
2 7.94461 12.7143 14.6908
1 1.7608 13.2001 15.5573
1 0.360866 13.0205 15.5982
2 3.57609 13.5628 16.8812
1 2.45391 13.5221 16.8026
1 7.75623 13.4905 16.7342
2 6.66173 13.5069 16.7345
1 1.73451 13.8175 17.9849
1 0.30075 13.8255 17.9472
3 4.83479 14.3183 18.5225
4 2.50599 14.2265 19.2467
2 7.75939 13.9001 18.7829
1 3.99937 14.42 19.3528
3 0.747938 14.6713 20.9083
1 1.89139 14.6527 20.6322
1 4.36195 15.0339 20.7726
1 3.02704 15.2378 21.4756
2 6.48275 15.2877 20.7635
1 5.59401 15.4207 21.3035
1 3.15443 15.714 22.8239
2 2.28977 15.7532 23.442
1 5.6304 15.9414 22.6335
1 4.45445 16.0632 23.3866
2 6.59846 16.1179 23.0827
2 4.37594 17.9438 26.7333
3 4.40129 16.4977 24.6442
1 5.31428 17.409 26.641
1 5.4545 16.5808 25.4905
2 6.28076 18.3948 28.4209
2 1.49253 15.0953 27.9457
2 1.32184 18.8223 27.6147
1 6.35907 17.5769 27.6193
1 6.64506 15.7605 25.4094
2 6.73088 14.8998 24.7177
1 1.07672 15.5225 28.8869
1 7.5901 16.8034 27.4926
1 1.69057 17.7899 27.8947
2 0.24062 14.8719 29.1099
1 7.67473 15.8996 26.3429
2 2.59559 17.8853 28.6073
2 1.90296 15.5902 29.6809
2 2.1027 17.3081 26.9412
1 0.521151 16.9983 28.5442
2 0.319383 15.1329 26.2998
1 -0.00180229 17.6051 29.7722
2 1.3986 19.3427 29.7812
2 6.64587 16.0621 30.4148
1 0.477538 18.9365 30.2245
1 6.98367 17.0625 30.5193
1 7.90598 19.5859 31.2209
1 6.26821 17.7466 31.522
2 0.24498 20.5318 31.5635
2 5.42717 17.1883 32.0096
1 6.73871 19.0402 31.9554
3 6.33018 19.6324 33.067
2 3.94374 20.037 32.0379
1 5.14539 19.1511 33.6463
1 3.9288 19.6254 33.0603
2 6.15608 18.1679 35.4095
1 5.18018 18.5594 34.9578
1 2.67007 19.491 33.7575
2 1.72201 19.7986 33.2969
1 3.90752 18.4033 35.6681
1 2.60428 18.8199 35.0407
1 3.53346 17.8587 37.0014
3 4.42396 17.3236 37.7477
1 1.447 18.4082 35.9573
4 2.07862 17.9631 37.3035
3 0.323932 18.3989 35.605
1 1.24202 17.2709 38.4566
2 2.63524 17.5016 40.0213
2 7.58911 16.9516 37.2274
1 1.72961 16.9541 39.7508
1 -0.0533644 16.7831 38.249
1 1.13679 16.2373 40.8126
1 7.42888 15.8777 39.1978
2 6.48214 15.4723 38.9962
3 0.0757303 15.4188 43.5982
1 8.00132 15.6073 40.4683
4 1.94805 15.843 42.0292
1 1.26032 15.5313 43.3957
3 4.25325 16.7563 41.6079
1 3.41043 16.2757 42.3174
2 7.46204 14.8387 41.123
1 2.25805 15.7883 44.5393
1 3.53789 16.2092 43.8868
2 1.29636 15.5631 -0.227958
1 2.25648 15.7583 45.9775
1 4.71403 16.62 44.636
2 5.62 16.887 44.0995
1 3.44119 16.0221 0.0495821
1 4.64002 16.4279 46.0298
3 3.34764 15.7997 1.37983
2 5.53818 16.5013 -0.00583748
2 7.43763 22.2623 33.7063
1 7.78458 22.5947 34.682
1 0.50155 23.7643 34.5641
2 5.79897 22.9394 38.9209
2 6.81281 21.0951 35.8888
2 7.894 19.86 37.7156
1 7.43473 21.9599 35.9086
1 0.885993 24.3538 35.8449
2 1.49361 25.2217 35.8057
1 7.94899 22.4775 37.1414
1 6.73928 22.7455 39.421
1 0.608434 23.7024 37.0682
2 6.45102 22.1867 40.3302
1 7.16464 20.4969 38.2596
2 7.19523 23.7114 39.593
2 0.948745 24.0942 38.0294
1 7.76628 21.9146 38.5299
2 6.87883 20.0276 39.1831
2 6.22603 20.491 37.7075
1 1.03103 21.6939 39.1865
2 2.10371 21.1564 37.2928
2 0.505675 22.4365 41.2478
1 2.19166 21.3292 38.4088
1 1.31349 22.0196 40.6135
1 3.42846 21.0722 38.9667
1 2.58873 21.8136 41.1947
2 4.27023 20.7914 38.2606
2 2.6466 22.0974 42.2559
1 3.65334 21.1125 40.4369
3 4.66526 20.5017 41.0485
2 6.74464 20.4643 42.5993
1 4.55033 20.162 42.3748
1 5.82549 20.2242 43.114
2 2.38403 19.8114 42.3686
1 3.32056 19.8453 42.9537
1 5.91594 20.1278 44.4841
2 6.85096 20.3685 44.9922
1 3.38254 19.6453 44.3875
1 4.6449 19.8323 45.2036
1 2.19723 19.5442 45.3181
3 1.07689 19.4645 44.946
1 4.25078 19.7254 -0.066385
4 2.73187 19.7089 0.0972927
3 5.05047 19.6071 0.821263
2 0.0970653 19.131 0.28882
1 2.02074 19.2291 1.32314
1 0.616527 18.9799 1.26255
2 3.67209 19.2366 2.68943
1 2.63735 18.9371 2.59655
1 8.01111 18.5641 2.40443
2 6.90024 18.4315 2.34771
1 1.97957 18.4404 3.77749
1 0.581759 18.2132 3.60508
3 5.09655 18.7895 4.64486
4 2.72561 18.0978 5.01635
2 -0.00895283 17.8158 4.41259
1 4.25696 18.3221 5.33739
3 0.922864 17.1424 6.50793
1 2.07358 17.4445 6.27604
1 4.44991 17.7265 6.7649
1 3.16881 17.0948 7.27436
2 6.55258 18.2719 7.29048
1 5.57173 17.8014 7.62
1 2.98462 16.4989 8.57579
2 1.95219 16.1927 8.98898
1 5.47401 17.0691 8.8304
1 4.21843 16.5218 9.35951
2 6.32313 16.9659 9.46761
2 4.52544 18.2666 11.3011
3 4.09867 15.8225 10.4868
1 4.94645 17.5158 11.9556
1 4.93733 16.1375 11.5267
2 5.2357 18.9363 13.4421
2 7.72946 15.7221 16.2924
2 7.59908 19.1125 16.5456
1 5.41865 17.9293 13.2337
1 5.53372 15.2087 12.5061
2 5.64384 14.124 12.3137
1 7.07855 16.5341 16.6047
1 5.93228 16.9974 14.2259
1 7.30181 18.7263 15.5478
2 0.426448 23.5239 18.4135
1 6.00873 15.6363 13.7799
2 0.0570835 18.3565 14.9386
2 6.81685 16.5825 17.6694
2 6.86433 19.5856 15.0562
1 6.30358 17.4786 15.6707
2 6.39649 14.8594 14.4935
1 5.05414 17.8918 16.3468
2 5.60797 19.8888 17.2193
2 4.04656 16.145 15.3898
1 4.86594 19.0791 17.1377
1 3.9342 16.9898 16.0483
1 3.56704 19.2137 17.7481
1 2.6905 17.0912 16.7185
2 3.51181 20.1912 18.3907
2 1.90125 16.3403 16.5555
1 2.5198 18.2478 17.5617
3 1.30259 18.3484 18.1421
2 3.30389 18.1688 19.9242
1 1.2968 18.8028 19.4121
1 2.36121 18.4989 20.3553
2 7.43839 19.6097 19.3304
1 0.0646802 19.2624 19.9926
1 2.21502 18.4663 21.7354
2 3.0118 18.2171 22.4544
1 7.99242 19.2481 21.407
1 0.966744 18.8519 22.3585
1 6.68542 19.6795 22.1587
3 5.67595 19.9127 21.564
1 0.488763 19.0548 23.7914
4 7.11253 19.4466 23.6596
3 1.08305 18.8942 24.8055
1 6.33338 20.1618 24.7391
2 8.04814 20.5429 25.9043
2 4.25877 20.0805 23.946
1 6.97939 20.6487 25.9302
1 4.89262 20.3355 24.7782
1 6.4116 21.0423 27.1898
1 4.22584 20.7172 25.9654
2 3.12757 20.7504 26.0653
3 5.48294 22.1075 30.0417
1 4.98303 21.1235 27.1227
4 7.21296 21.5641 28.3464
1 6.60127 22.1886 29.5985
3 1.40607 21.7404 27.4241
1 0.683158 21.9188 28.3325
2 4.46151 21.4267 28.0062
1 7.84582 22.7166 30.3912
1 1.00968 22.5678 29.6371
2 6.977 23.4848 32.1983
1 7.88129 23.3387 31.6846
1 2.29783 22.9298 30.2459
2 3.20674 22.7221 29.7095
1 1.07683 23.5691 32.2881
1 2.31393 23.3383 31.5913
3 1.18801 24.1734 33.488
2 3.20223 23.4902 32.1728
2 2.53382 27.1828 28.8933
1 2.45999 27.1859 29.9525
1 3.28598 26.4173 30.8322
2 0.608466 30.5526 31.8653
2 0.73076 28.4518 29.8248
2 6.46548 27.6761 31.1886
1 1.37492 27.9559 30.5314
1 3.05389 26.3626 32.2456
2 3.76431 25.7859 32.8405
1 1.10262 27.824 31.9365
1 0.332045 30.0857 32.8267
1 1.96506 27.0743 32.8193
2 7.58542 30.6478 33.3479
1 6.80259 28.6868 31.5877
2 1.26124 30.1293 33.4558
2 1.82263 27.0864 33.8528
1 -0.0421888 28.5736 32.5695
2 5.89934 29.1313 32.0164
2 6.98425 29.3845 30.7242
1 7.67965 27.903 33.8347
2 6.84106 26.0252 32.9775
2 0.24825 29.5353 35.1557
1 7.04278 26.6103 33.8664
1 7.86408 28.5507 35.1236
1 6.59108 26.0342 35.1036
1 7.41827 27.9963 36.3326
2 6.11827 25.0153 35.0526
2 7.65129 28.4957 37.2802
1 6.70583 26.7144 36.36
3 5.96986 26.2039 37.3844
2 0.434941 26.7095 38.4407
1 6.38125 26.4271 38.6494
1 7.75214 26.4604 39.0995
2 4.27542 26.0827 39.3227
1 5.35597 26.1357 39.6245
1 0.0147357 26.1806 40.4215
2 1.05223 26.2478 40.7868
1 5.68266 25.6673 40.9265
1 7.07319 25.7826 41.3682
1 4.79307 24.9825 42.0387
3 3.64142 24.73 41.8927
1 7.26647 25.1387 42.7779
4 5.77197 24.6966 43.2232
3 0.151285 24.9082 43.2819
2 3.30509 23.7237 44.0831
1 5.46899 24.0292 44.5277
1 4.10673 23.5817 44.8146
2 7.36725 24.4168 45.3963
1 6.43941 23.8698 45.5376
1 3.81808 22.989 46.0336
2 2.81463 22.5945 46.2506
1 6.21664 23.1547 0.091051
1 4.89291 22.6951 0.260033
3 1.03513 24.2287 0.0794145
4 7.30627 23.017 1.11789
2 4.72882 22.1365 1.16124
1 0.628996 23.5655 0.980735
3 6.29288 21.7393 2.95426
1 7.25908 22.2322 2.4868
1 1.431 23.2051 2.17303
1 0.540199 22.2794 3.04544
2 3.40267 23.9598 1.85768
1 2.83573 23.3835 2.51452
1 1.15613 21.5841 4.11609
2 0.534461 20.9017 4.61763
1 3.34389 22.8059 3.71936
1 2.51799 21.9233 4.51087
2 4.37158 22.8951 4.04062
2 4.17548 20.0884 7.48777
3 3.16518 21.5544 5.64214
1 3.09553 20.3061 7.64573
1 2.38835 21.0592 6.61415
2 3.10639 19.4034 9.68837
2 6.94268 20.0928 11.8176
2 8.00432 17.8471 11.369
1 2.55026 19.9168 8.90466
1 1.06527 21.4251 6.98803
2 0.440537 22.0615 6.3118
1 7.33222 20.3725 10.8528
1 1.13194 20.2218 9.17296
1 0.52481 18.2544 10.5662
2 7.34257 21.4319 10.8565
1 0.437601 21.0029 8.17181
2 0.13657 17.9172 9.56674
2 6.55733 19.9852 10.1472
2 1.46955 17.697 10.7012
1 0.629346 19.8287 10.5141
2 7.53514 21.2356 8.39228
1 1.49642 20.3043 11.6384
2 1.64494 22.2145 10.5663
2 1.39461 18.6057 13.0875
1 1.97902 21.6693 11.4258
1 1.79215 19.6158 12.8688
1 2.92037 22.266 12.3075
1 2.72325 20.2452 13.7581
2 3.40187 23.2529 12.1186
2 3.09638 19.7381 14.6504
1 3.35408 21.5086 13.421
3 4.54845 21.7348 14.0663
2 6.67266 22.3087 15.3965
1 4.48856 21.9152 15.3948
1 5.79582 22.2468 16.0149
2 2.32906 21.7572 15.6802
1 3.28798 21.9154 16.1557
1 5.8969 22.5377 17.3593
2 6.8148 22.7334 17.8074
1 3.34173 22.3421 17.5125
1 4.69703 22.6539 18.193
1 2.27778 22.7101 18.4286
3 0.916713 22.6657 18.0273
1 4.3343 22.8912 19.6204
4 2.7871 22.847 19.6786
3 5.18088 23.2232 20.4504
1 2.10204 22.981 20.9547
2 3.90014 23.1626 22.2096
2 -0.0418263 22.9475 20.3075
1 2.7714 23.2126 22.2181
1 0.661666 23.0282 21.1703
1 2.18664 23.5389 23.4834
1 -0.0426489 23.2737 22.3756
2 6.96546 23.2886 22.3525
3 1.10676 24.6129 26.264
1 0.759492 23.4534 23.5435
4 2.95748 24.025 24.6734
1 2.25724 24.3997 26.0843
3 5.38101 23.8049 24.1657
1 4.46252 24.1269 24.8709
2 0.140559 23.6647 24.4408
1 3.393 24.7345 27.0519
1 4.69451 24.4789 26.3435
2 2.46996 25.15 28.9811
1 3.39144 25.0453 28.4529
1 5.91798 24.6409 27.1427
2 7.00788 24.6129 26.734
1 4.59622 25.3807 29.1751
1 5.85703 25.0809 28.5079
3 4.48582 25.8977 30.4142
2 6.81137 25.2112 29.0995
2 4.29915 33.7444 32.2235
1 4.09011 32.6924 32.4075
1 3.87564 31.7769 31.2864
2 5.30904 28.514 34.8971
2 4.38675 32.8571 34.5678
2 5.43653 30.6508 37.2691
1 4.2202 32.157 33.713
1 3.70208 30.3444 31.6061
2 3.31839 29.6447 30.8538
1 4.03745 30.7612 34.0658
1 4.45902 28.739 35.5797
1 3.73076 29.8904 32.927
2 4.7319 28.3688 36.6347
1 5.27227 31.0406 36.2557
2 3.66932 28.1197 35.2117
2 3.42844 28.8767 33.1663
1 4.09669 30.3012 35.5044
2 6.23751 30.8789 35.7147
2 5.15771 32.1626 36.3836
1 2.85331 30.6364 36.3068
2 2.31678 32.3882 35.0462
2 2.79169 29.012 37.8925
1 2.05432 31.8138 35.9895
1 2.40991 29.9888 37.5442
1 0.945733 32.304 36.7694
1 1.39019 30.4709 38.3983
2 0.524872 33.2452 36.4026
2 1.06356 29.8451 39.1992
1 0.577493 31.6067 37.9945
3 7.69715 32.084 38.6583
2 5.40586 32.1638 38.8216
1 7.11727 31.3548 39.7488
1 5.69175 31.585 39.6636
2 0.503314 30.4854 41.0813
1 7.57931 30.5629 40.8538
1 4.67922 30.8497 40.3968
2 3.57918 30.9843 40.182
1 6.63543 29.9394 41.757
1 5.16075 30.0082 41.4639
1 6.89179 29.0375 42.9707
3 7.87954 29.1041 43.6071
1 4.43272 29.0227 42.3608
4 5.52682 28.3892 43.329
3 3.24395 28.893 42.4191
2 3.28038 26.9709 43.9946
1 5.2536 27.5581 44.5365
1 3.99918 26.9386 44.7481
2 7.21696 27.8437 45.5254
1 6.24414 27.3433 45.59
1 3.70126 26.2705 45.983
2 2.74156 25.8703 46.2057
1 6.02878 26.6608 0.146703
1 4.73555 26.1035 0.257033
3 0.702151 28.2332 0.718101
4 6.85664 26.8493 1.39425
2 4.50067 25.5667 1.18871
1 0.185624 27.4375 1.43903
3 5.57761 25.7586 3.30248
1 6.59561 26.1443 2.79618
1 0.798322 26.9202 2.74357
1 7.88325 26.1973 3.58618
2 3.00378 27.3469 2.75051
1 2.14741 26.9383 3.30891
1 0.0590117 25.6265 4.8508
2 7.34818 25.1272 5.39676
1 2.43245 26.3176 4.53899
1 1.41756 25.6873 5.36103
2 3.49025 26.2645 4.84889
2 2.23202 23.184 8.22389
3 1.7076 24.9259 6.42058
1 3.01173 23.9235 8.11033
1 2.85881 24.9507 7.09277
2 4.06844 23.195 9.90245
2 7.30036 23.6107 9.48211
2 6.61054 27.4632 9.97401
1 4.05328 23.9455 9.07826
1 3.86757 26.007 7.13594
2 3.71393 26.7614 6.44287
1 6.79145 23.9495 10.3712
1 4.97187 25.0646 9.09409
1 7.01499 26.401 9.92927
2 7.6244 23.9755 11.187
1 4.91563 26.0817 8.05365
2 7.82015 26.4226 10.745
2 6.03422 23.2005 10.6733
2 7.47819 26.2638 8.94138
1 5.9357 25.2435 10.2229
2 5.58099 27.0037 7.99139
1 5.11422 25.549 11.4828
2 6.4243 24.4332 12.767
2 3.434 26.491 10.5281
1 5.54183 25.0283 12.7787
1 3.79166 26.0926 11.443
1 4.79801 25.2357 13.9716
1 3.01669 26.2816 12.6259
2 5.20173 24.8011 14.9478
2 1.96047 26.6376 12.6306
1 3.49217 25.8108 13.8983
3 2.56657 25.9422 14.9054
2 5.11415 26.3473 16.3131
1 2.85859 26.0379 16.1936
1 4.17282 26.2106 16.8469
2 0.70997 25.8207 16.4383
1 1.68222 25.9897 16.9565
1 4.24551 26.4007 18.2287
2 5.22868 26.5737 18.6575
1 1.71748 26.2145 18.4264
1 3.05771 26.4386 19.0609
1 0.648358 26.2965 19.4669
3 7.57967 26.0928 19.3735
1 2.93311 26.7954 20.5574
4 1.4084 26.6998 20.7999
3 3.81733 27.1498 21.2713
1 0.786566 26.8269 22.1717
2 2.41873 27.848 23.1396
2 6.95558 25.9845 21.5681
1 1.40702 27.4186 23.3468
1 7.57031 26.4432 22.4136
1 0.851692 27.5542 24.6455
1 6.91829 26.6391 23.6453
2 5.93777 26.3234 23.7104
3 7.98943 29.5486 27.0451
1 7.61683 27.1873 24.7927
4 1.59949 28.1456 25.8476
1 0.997508 29.256 26.8687
3 3.96082 27.6094 25.3338
1 3.07158 28.2616 25.9902
2 7.07962 27.3124 25.7771
1 2.13497 29.9163 27.5791
1 3.4114 29.2788 27.0367
2 1.4769 31.4782 29.0646
1 2.29502 30.9193 28.6043
1 4.74774 29.6901 27.4756
2 5.63892 29.2903 27.0278
1 3.60968 31.3832 29.0062
1 4.78124 30.7767 28.4375
3 3.77924 32.2724 30.1047
2 5.76833 31.1477 28.7933
2 6.10856 28.2673 20.8761
1 6.448 29.264 21.0776
1 7.25104 29.9169 20.0389
2 5.72679 33.969 22.9139
2 5.61018 29.4482 23.0659
2 6.4523 30.4322 25.4144
1 6.15643 29.9663 22.2753
1 7.80312 31.252 20.2706
2 0.145115 31.8049 19.4672
1 6.7018 31.2873 22.5081
1 5.29189 33.1955 23.5344
1 7.47672 31.9622 21.4441
2 4.42109 32.7147 22.9997
1 5.80689 31.0582 24.8433
2 4.89846 33.4876 24.5754
2 7.86728 32.9135 21.6054
1 6.35362 32.0419 23.7898
2 4.70604 30.9231 25.0204
2 3.56709 26.8371 24.7662
1 7.70219 32.6023 24.2938
2 0.540533 30.6276 24.439
2 7.09999 34.7758 24.4894
1 0.653285 31.683 24.5813
1 7.88936 34.0351 24.6518
1 1.83587 32.111 25.2303
1 0.960276 34.5112 25.2408
2 2.54894 31.38 25.607
2 1.02023 35.5197 25.6658
1 1.95509 33.4786 25.5212
3 3.05752 33.7478 26.2935
2 5.0115 34.5996 27.5684
1 2.87522 34.2021 27.5127
1 4.10685 34.6532 28.1888
2 0.690136 33.7825 27.7296
1 1.60928 34.2268 28.1853
1 4.09039 35.2458 29.4713
2 4.9739 35.6861 29.873
1 1.62178 34.6568 29.519
1 2.84632 35.2695 30.2056
1 0.457778 34.7569 30.522
3 7.48536 34.4052 30.2253
1 2.46273 35.76 31.5802
4 1.01677 35.2805 31.8858
3 3.21041 36.5518 32.1306
2 6.39296 35.0574 32.3199
1 0.241209 35.5577 33.1569
1 6.93585 35.4649 33.2023