5160
 Atoms. Timestep: 0
2 0.152414 12.6517 3.68518
1 1.10655 12.1651 3.48105
1 2.10714 12.7794 2.62466
2 4.47125 7.24495 4.55908
2 0.581297 10.4284 4.67607
2 4.03792 8.55742 6.7542
1 1.41422 10.918 4.08966
1 3.46247 12.302 2.72327
2 4.3172 12.9126 2.35667
1 2.71537 10.2438 4.0026
1 4.27004 8.20327 4.05922
1 3.70607 11.0385 3.28253
2 4.08431 8.07571 2.97481
1 3.67094 9.41019 6.16456
2 5.24177 8.71059 4.19497
2 4.70607 10.5936 3.25421
1 3.07678 8.98789 4.75792
2 4.46141 10.1757 6.03912
2 2.9059 9.89466 6.82388
1 2.00702 7.99447 5.1032
2 2.62114 6.54108 3.65637
2 0.992838 9.16901 6.72456
1 1.93398 6.68704 4.45918
1 1.06161 8.19715 6.21289
1 1.15922 5.62606 4.98462
1 0.275088 7.18495 6.7637
2 1.13893 4.62585 4.56509
2 6.55 7.38512 7.62194
1 0.396939 5.83425 6.20325
3 0.088883 4.73773 6.92087
2 1.27634 4 9.14078
1 6.43852 4.87018 8.1457
1 0.281776 4.44506 9.29457
2 4.56312 5.68832 7.52033
1 5.16105 5.43239 8.41223
1 6.83995 4.73036 10.6476
2 0.575516 4.41946 11.4533
1 4.64946 5.68517 9.73818
1 5.51683 5.26819 10.8974
1 3.42957 6.36484 10.3312
3 2.5071 6.7868 9.65955
1 4.86755 5.58223 12.2534
4 3.52559 6.31256 11.8625
3 5.38654 5.26265 13.266
2 0.750421 6.81436 11.8356
1 2.62048 6.94527 12.8977
1 1.22671 7.20177 12.717
2 4.10732 7.2008 14.4385
1 3.0869 7.48117 14.1394
1 0.512337 8.09443 13.5969
2 6.35777 8.33592 13.377
1 2.4506 8.33287 15.1067
1 1.11019 8.7062 14.7236
3 5.41996 8.07617 16.0676
4 3.12794 8.84398 16.3433
2 0.506368 9.39391 15.3277
1 4.55919 8.56344 16.7641
3 1.59705 10.6781 17.3188
1 2.60914 10.0643 17.2973
1 4.88977 9.32825 18.057
1 3.72367 10.2566 18.3141
2 6.85919 8.65395 18.7765
1 6.04325 9.33811 18.9016
1 3.72817 11.1441 19.4526
2 2.85088 11.7651 19.7272
1 5.97919 10.2486 20.0091
1 4.89381 11.1439 20.2534
2 6.8578 10.3202 20.6715
2 6.79481 12.2574 19.0755
3 4.89895 12.2876 21.1124
1 6.8091 13.0814 19.7863
1 5.86752 13.1392 20.8982
2 1.63965 13.894 18.7645
2 2.94863 15.5601 18.3258
2 1.12656 17.3362 19.4538
1 0.917655 14.0279 19.5916
1 6.02426 14.2748 21.7914
2 5.32979 14.4246 22.6273
1 3.45142 15.4996 19.3001
1 1.23611 15.0444 20.5871
1 2.03259 17.3595 20.0751
2 4.39175 16.1435 19.2531
1 0.254697 15.1084 21.6628
2 1.66802 17.9081 20.9842
2 3.82607 14.4615 19.55
2 2.82136 17.9373 19.6744
1 2.48093 15.951 20.4287
2 0.346207 15.8895 22.4419
1 3.36419 16.0951 21.6949
2 2.25046 14.6322 22.8788
2 4.85873 17.6289 21.0028
1 3.00003 15.4121 22.941
1 4.46485 17.0362 21.8334
1 3.60078 15.6966 24.1939
1 5.12419 17.2038 23.0922
2 3.23492 15.1935 25.0468
2 5.94935 17.8957 23.0972
1 4.80271 16.5255 24.3041
3 5.77597 16.3656 25.2943
2 0.425987 15.0699 27.0148
1 5.47062 16.2415 26.5569
1 6.40387 15.4866 27.4117
2 3.57145 17.3847 26.4926
1 4.23092 16.7845 27.1154
1 6.16125 15.1935 28.7464
2 6.86391 14.6672 29.3432
1 3.96355 16.4613 28.4772
1 4.92278 15.603 29.3323
1 2.74373 16.8931 29.259
3 1.90004 17.6714 28.9078
1 4.28789 15.3658 30.6777
4 2.84898 16.1821 30.5981
3 4.77682 14.6865 31.5174
1 1.91728 16.3381 31.7453
2 3.11457 15.192 33.0873
2 0.442539 17.5843 30.6036
1 2.14259 15.7502 33.032
1 0.713221 17.1107 31.5895
1 1.27986 15.8798 34.1856
1 6.70597 17.1656 32.6703
2 5.78215 17.7149 32.5345
3 6.61922 16.0034 36.949
1 0.01962 16.5283 33.9208
4 1.64127 15.4703 35.5428
1 0.750803 15.4414 36.8142
3 3.55532 13.9677 35.0867
1 2.85619 14.4675 35.9073
2 6.22161 16.5184 34.6914
1 1.47216 14.7065 37.9439
1 2.73278 14.083 37.3495
2 0.247195 14.9044 0.023784
1 1.18813 14.5145 39.3325
1 3.61256 13.2832 38.1826
2 4.51439 12.9246 37.6694
1 2.09213 13.7454 0.406915
1 3.26706 13.1049 39.5362
3 1.60384 13.5387 1.68163
2 3.92701 12.4872 0.458615
2 1.63422 16.6214 2.62306
1 2.41833 16.4748 3.32154
1 3.80886 16.7483 2.97081
2 4.5783 14.4317 7.81622
2 1.07914 15.6964 4.79831
2 1.01201 17.0586 7.12543
1 2.13647 15.916 4.57226
1 4.83974 16.538 3.99645
2 5.85831 16.7729 3.7907
1 3.10341 15.694 5.66351
1 3.99678 15.3931 7.97657
1 4.49355 15.9345 5.22634
2 4.71126 16.2004 7.8323
1 2.0511 16.9525 7.44293
2 3.72155 15.4602 9.0761
2 5.31825 15.8241 5.94005
1 2.70555 15.5336 7.07443
2 2.06222 17.1919 8.54965
2 2.57752 17.7748 6.96842
1 1.65912 14.5019 7.39098
2 1.92417 13.1486 5.643
2 1.13996 15.4342 9.41055
1 1.33396 13.3679 6.51345
1 0.958509 14.6197 8.66806
1 0.359107 12.4657 6.90681
1 0.028021 13.6407 9.06993
2 0.191293 11.541 6.38323
2 6.573 13.7149 10.0864
1 6.57463 12.5332 8.22913
3 5.59267 11.6575 8.54014
2 4.74792 9.4671 9.91262
1 4.86361 11.6503 9.68128
1 4.25988 10.4266 10.1708
2 4.57169 13.7904 9.9434
1 4.14694 12.8194 10.1387
1 3.11597 10.2549 11.0429
2 2.78567 9.30222 11.3673
1 2.98839 12.7575 10.977
1 2.42025 11.4641 11.4148
1 2.26743 13.8707 11.7879
3 2.65137 14.9934 11.8177
1 1.08937 11.6588 12.2325
4 1.04577 13.155 12.5509
3 0.207269 10.8875 12.436
2 5.34818 12.5098 13.6606
1 0.180956 13.8659 13.5496
1 5.79044 13.4627 14.0716
2 1.55921 15.4533 13.7381
1 0.635341 15.0624 14.1603
1 5.19616 14.1708 15.1597
2 4.25756 13.8114 15.6065
1 0.081029 15.8822 15.204
1 5.76597 15.3563 15.7221
3 3.0027 17.259 14.3389
4 0.770675 17.1569 15.5703
2 5.23497 15.9091 16.4896
1 2.28994 17.5526 15.2398
3 6.51685 17.6509 17.6254
1 0.554608 17.856 16.9004
1 2.84537 18.4645 16.3197
1 1.74854 18.757 17.3003
2 4.97839 18.9232 15.821
1 4.13931 19.1318 16.5022
1 1.9341 19.7728 18.3017
2 1.1066 20.0398 18.9759
1 4.33287 20.0447 17.5559
1 3.22012 20.389 18.4754
2 5.29765 20.5226 17.6792
2 3.93693 23.1833 21.042
3 3.38693 21.2995 19.4471
1 4.57622 22.3011 21.1849
1 4.41901 21.1837 20.3088
2 5.68204 23.2078 22.8635
2 1.69456 19.3659 22.6655
2 2.04355 22.4282 24.13
1 5.54209 22.3041 22.2365
1 5.20703 20.0084 20.5078
2 5.09964 19.1452 19.8266
1 1.29242 19.6694 23.6727
1 6.35271 21.1388 22.4464
1 1.4372 22.1942 23.2624
2 2.15081 19.7449 24.3837
1 6.10102 19.9722 21.6213
2 2.25926 21.8805 22.6429
2 0.667526 18.8762 24.0378
2 0.961887 23.0157 22.7408
1 0.437986 21.0287 23.5533
2 6.75429 19.0933 21.7795
1 6.62295 21.1541 24.8712
2 4.66905 20.4031 24.1146
2 1.57178 21.6405 25.9917
1 5.22382 20.7661 24.9929
1 0.458473 21.5308 26.0985
1 4.57188 20.9171 26.2427
1 6.68572 21.6944 27.3107
2 3.51239 20.696 26.4045
2 0.333336 21.9738 28.2472
1 5.24207 21.5372 27.369
3 4.57229 22.0942 28.4182
2 4.56234 19.3655 28.8266
1 4.16936 21.4323 29.5215
1 4.22931 19.9887 29.6263
2 3.40764 23.2816 30.5288
1 3.62989 22.1945 30.63
1 3.99047 19.3357 30.8567
2 4.08361 18.2505 30.9837
1 3.41415 21.6239 31.9131
1 3.60054 20.1156 32.0084
1 3.18246 22.1342 33.3274
3 2.84434 23.307 33.4698
1 3.66511 19.6952 33.4776
4 3.52537 21.0139 34.2966
3 4.02454 18.6291 33.9351
1 3.8481 21.1854 35.8099
2 5.75748 20.3859 35.5673
2 1.89197 22.0913 36.2805
1 5.02805 20.663 36.3854
1 2.83516 21.6522 36.7121
1 5.303 20.4521 37.7525
1 2.99518 21.3903 38.0994
2 2.23275 21.7333 38.848
3 6.42061 19.7341 0.986903
1 4.19071 20.8236 38.6031
4 6.62799 19.9046 38.237
1 0.091034 19.4457 39.6747
3 0.704609 19.0605 36.1404
1 0.761202 19.1584 37.3321
2 4.2902 20.7142 39.6923
1 1.39894 18.6844 39.61
1 1.79791 18.4538 38.1937
2 1.96107 18.4205 1.99558
1 2.24313 18.1737 0.976325
1 2.99238 17.6371 37.9666
2 3.3524 17.4486 36.9723
1 3.33643 17.3117 0.762523
1 3.70786 17.1079 39.0828
3 4.23797 16.9233 1.73996
2 4.5845 16.5185 38.8173
2 3.43066 25.6304 2.39186
1 3.22676 24.8179 3.0499
1 3.63167 23.5109 2.63421
2 3.33316 24.3435 7.4319
2 2.39425 26.0442 4.6216
2 1.47441 25.9825 7.13397
1 2.62026 25.0448 4.32804
1 3.41683 22.3849 3.53059
2 3.69217 21.3362 3.29869
1 2.22164 23.9189 5.14251
1 2.44345 23.6915 7.54113
1 2.67314 22.5927 4.71249
2 1.96164 23.8581 8.5178
1 0.697033 25.3561 6.62638
2 2.72274 22.6351 7.62266
2 2.47604 21.7051 5.3326
1 1.39982 23.9514 6.39826
2 0.254269 25.8176 5.73297
2 6.76814 25.2481 7.36177
1 0.267281 22.8996 6.48131
2 0.169533 22.2295 4.43636
2 0.032126 23.2543 8.67529
1 6.69055 22.0569 5.41521
1 6.59915 22.624 7.81477
1 5.70246 21.069 5.62141
1 5.69287 21.5972 8.05439
2 5.396 20.4561 4.7615
2 5.36889 21.4733 9.05141
1 5.12672 20.7991 6.92501
3 3.96614 20.1752 7.13936
2 5.77269 19.1818 9.00277
1 3.73213 20.0339 8.48196
1 4.75351 19.5824 9.40962
2 1.67338 20.645 8.34765
1 2.46986 20.3715 9.0223
1 4.64895 19.6908 10.8113
2 5.43647 19.3147 11.4571
1 2.35181 20.6503 10.4543
1 3.42937 20.2252 11.4148
1 1.18459 21.1181 11.3012
3 0.168237 21.509 10.8005
1 2.93213 20.2807 12.8458
4 1.43371 20.8219 12.8151
3 3.66656 20.0457 13.7622
2 6.02561 22.2403 12.6142
1 0.820175 21.647 13.8733
1 6.60174 22.4589 13.5272
2 2.38692 21.5041 15.3862
1 1.45344 21.9874 15.1429
1 5.91577 23.2814 14.4686
2 4.99038 23.7349 14.2747
1 0.911719 22.8959 16.0819
1 6.57562 23.4691 15.7159
3 3.43657 24.7241 16.5077
4 1.52424 23.3911 17.4094
2 6.09104 24.1454 16.47
1 2.81702 24.2933 17.4395
3 6.49757 23.6372 18.8252
1 0.72138 23.9103 18.5815
1 2.924 24.9463 18.8092
1 1.59459 24.7647 19.5081
2 4.76773 26.0645 18.9436
1 3.85904 25.8125 19.4709
1 1.32796 25.4542 20.7447
2 0.330297 25.3739 21.1935
1 3.58274 26.4279 20.7103
1 2.34313 26.1704 21.4233
2 4.29681 27.1242 21.1103
2 2.33872 28.7755 21.7407
3 2.27735 26.3871 22.714
1 3.01895 28.631 22.5529
1 3.15961 27.3428 23.1739
2 3.75243 30.6647 22.3972
2 0.245474 29.7495 25.9208
2 6.00668 31.5191 22.5554
1 3.88568 29.6931 22.9112
1 4.18753 27.0937 24.133
2 4.27042 26.1119 24.61
1 0.166131 30.2816 24.9572
1 4.85153 29.5379 24.007
1 5.59619 31.8288 23.5072
2 0.663301 29.6289 24.209
1 4.97853 28.2025 24.535
2 4.61425 32.2345 23.2066
2 0.863508 31.1615 25.0118
2 6.16026 32.7102 23.8666
1 5.56107 30.7137 24.637
2 5.68781 28.006 25.3799
1 4.88578 31.301 25.8196
2 3.05237 30.0638 25.5928
2 6.51518 32.7405 26.2841
1 3.57312 30.8248 26.1549
1 5.55613 32.2954 26.6633
1 2.93909 31.2853 27.3475
1 4.97515 32.7004 27.8444
2 1.94011 30.9504 27.6507
2 5.40492 33.4538 28.4799
1 3.6837 32.1202 28.2502
3 3.10583 32.2531 29.4615
2 5.1699 30.5463 29.1556
1 3.81758 31.7548 30.4752
1 4.95824 30.8619 30.2129
2 2.60493 32.8113 31.9735
1 3.44985 32.1532 31.817
1 5.71507 30.3415 31.2612
2 6.55087 29.6543 31.0533
1 4.13634 31.5392 32.9029
1 5.38942 30.6823 32.6479
1 3.92926 31.697 34.3871
3 3.07774 32.385 34.8928
1 5.9182 30.1755 33.9324
4 5.10021 30.7526 35.0839
3 6.65935 29.2273 34.0693
1 5.0242 29.9775 36.3261
2 6.75107 28.622 36.0217
2 3.23572 31.0439 37.1067
1 5.92032 28.8698 36.7038
1 3.9882 30.2772 37.2778
1 5.9921 28.2698 37.9851
1 3.934 29.5588 38.4938
2 3.08794 29.7627 39.2652
3 6.47751 26.6202 0.964188
1 4.87084 28.5374 38.8436
4 0.290308 27.6103 38.5064
1 0.251971 26.6372 39.7096
3 2.20806 27.8196 36.7522
1 1.65936 27.2775 37.6668
2 4.76293 27.9556 0.051771
1 1.45815 25.7086 39.5632
1 2.28703 26.1031 38.3495
2 1.32368 24.4392 1.7237
1 1.88226 24.7075 0.793166
1 3.45159 25.3397 38.019
2 3.98003 25.5804 37.1134
1 3.09122 23.9852 0.461044
1 3.73704 24.2528 38.8967
3 3.76329 23.1796 1.32248
2 4.61661 23.6564 38.5724
2 0.13574 33.6402 1.49521
1 0.279732 32.9441 2.3059
1 0.799218 31.5927 2.07996
2 1.3785 33.9932 6.60759
2 6.50067 34.4352 3.78091
2 4.79523 34.1963 6.87648
1 6.8895 33.4084 3.60121
1 1.23826 30.7708 3.20348
2 1.74692 29.7979 3.07291
1 0.150196 32.4695 4.71746
1 0.699565 33.188 7.05864
1 0.852505 31.2036 4.4827
2 0.325955 33.5651 8.06113
1 5.39506 34.002 5.91973
2 1.32466 32.32 7.22982
2 0.94022 30.5935 5.36288
1 6.41326 32.7859 6.07047
2 5.89374 34.9437 5.64977
2 4.6497 33.7495 5.17153
1 5.67934 31.6225 6.56849
2 5.07946 31.0215 4.52138
2 6.04831 31.8448 8.79974
1 4.95724 30.83 5.5684
1 5.54562 31.2568 7.98392
1 4.15245 29.766 5.98381
1 4.79284 30.1683 8.39694
2 3.69203 29.1366 5.26437
2 4.67142 29.9625 9.48394
1 4.02614 29.3912 7.39305
3 3.02314 28.5478 7.59166
2 4.87979 27.1931 9.05642
1 2.8286 27.9324 8.79669
1 3.9051 27.2439 9.49831
2 0.708074 28.4233 8.6651
1 1.50874 28.0063 9.29037
1 3.65564 26.6809 10.7624
2 4.46584 26.1918 11.3372
1 1.21201 27.503 10.5963
1 2.33163 26.7774 11.329
1 0.064795 27.5519 11.5854
3 6.11409 28.4023 11.5473
1 1.83588 26.3106 12.6939
4 0.31047 26.6707 12.798
3 2.4919 25.6479 13.4388
2 4.65108 27.2699 13.349
1 6.61087 27.0079 14.1709
1 5.23924 27.3282 14.2533
2 1.49011 26.988 15.3002
1 0.414442 27.2341 15.387
1 4.63905 27.8068 15.4725
2 3.6031 28.0225 15.4869
1 6.8439 27.7678 16.6222
1 5.45209 28.015 16.6256
3 1.98782 30.1303 16.183
4 0.753768 28.4953 17.7043
2 4.92709 28.3621 17.5364
1 1.55348 29.7769 17.2304
3 5.95539 28.3876 19.4817
1 0.037464 28.8774 18.9909
1 1.42591 30.8106 18.3718
1 0.635841 30.2225 19.4881
2 2.62248 32.4871 17.5669
1 2.06776 32.0763 18.4054
1 0.730532 30.9298 20.7306
2 0.183532 30.5094 21.582
1 2.00978 32.7573 19.6754
1 1.40218 32.1927 20.847
2 2.53143 33.7124 19.7301
2 0.223521 34.4239 20.4785
3 1.571 32.7041 22.1171
1 0.298262 34.7505 21.5194
1 1.07323 33.8893 22.415
2 6.04178 36.579 21.2431
2 0.641545 38.9134 22.428
2 4.18086 37.3448 22.5284
1 6.57525 35.927 21.9752
1 1.14929 34.3603 23.7994
2 1.73279 33.7967 24.5015
1 0.211371 38.8882 23.4864
1 6.67339 36.3732 23.3387
1 4.89936 38.15 22.7808
2 6.6906 39.9167 23.6979
1 0.501271 35.5316 24.2383
2 4.26266 38.8843 23.266
2 1.11009 38.7808 24.1106
2 5.2755 38.5562 21.802
1 6.09084 37.7117 23.6923
2 0.606662 35.9408 25.2196
1 5.66397 37.6758 25.1668
2 4.05365 36.1401 24.8876
2 0.192059 39.1525 25.9168
1 4.59732 36.7665 25.5989
1 6.32149 38.4819 26.1952
1 4.20865 36.677 26.9513
1 5.94415 38.3371 27.5811
2 3.3608 36.0086 27.2457
2 6.53871 38.8926 28.3358
1 4.92788 37.4414 27.9588
3 4.43521 37.2646 29.1972
2 0.00652 36.484 28.8647
1 5.30236 37.0533 30.2197
1 6.69487 36.6988 29.9202
2 3.81515 37.4452 31.7407
1 4.83797 37.2122 31.5471
1 0.747771 36.5046 30.9132
2 1.72912 36.1933 30.6427
1 5.79115 37.0385 32.6299
1 0.330445 36.7137 32.2941
1 5.7177 37.2844 34.1118
3 4.91737 37.9972 34.6098
1 1.16043 36.7633 33.5633
4 0.242642 36.9992 34.7642
3 2.33822 36.5243 33.6518
1 0.555638 36.6685 36.1963
2 2.3895 35.6142 35.8023
2 5.67291 37.6215 37.0565
1 1.72198 35.9514 36.6137
1 6.59405 37.0543 37.2748
1 2.08063 35.5364 37.9169
1 6.89895 36.8153 38.6414
2 6.25817 37.1424 39.4535
3 2.97699 33.9266 0.878996
1 1.15513 36.0235 38.914
4 3.21094 34.5796 38.1838
1 3.56374 33.8267 39.5479
3 4.7977 34.8692 36.3615
1 4.40727 34.2556 37.3128
2 1.33588 35.7563 0.233204
1 4.80373 32.9823 39.3303
1 5.30914 33.1808 37.9006
2 5.2094 31.9706 1.56433
1 5.51531 32.1533 0.542162
1 6.49914 32.5047 37.4775
2 6.90272 32.5863 36.4914
1 6.73305 31.4895 0.069474
1 0.196397 31.5891 38.4264
3 0.653236 30.8507 1.01688
2 1.05263 31.0241 38.025
2 0.682109 40.1555 6.41629
1 0.590949 39.5625 7.35555
1 0.825452 38.1655 7.25283
2 1.47965 40.2379 11.9084
2 6.7671 41.1877 8.65624
2 6.41576 41.8426 11.2303
1 0.140629 40.1342 8.58324
1 0.752845 37.3061 8.40755
2 0.889881 36.2406 8.31871
1 0.087738 39.2966 9.75437
1 0.579822 39.6929 12.2298
1 0.429483 37.8806 9.67004
2 0.173164 40.2334 13.1006
1 5.68396 41.0287 11.0207
2 0.895299 38.7434 12.5827
2 0.354372 37.2368 10.543
1 6.37125 39.6034 11.065
2 5.10813 41.1944 10.099
2 4.91384 41.0605 11.8041
1 5.26022 38.627 11.4234
2 5.00493 38.1544 9.30157
2 5.15748 38.7081 13.6785
1 4.6137 37.9549 10.2776
1 4.77192 38.2774 12.7688
1 3.6084 37.0318 10.4922
1 3.7837 37.3021 12.9571
2 3.14501 36.5175 9.59859
2 3.52624 37.0639 13.9878
1 3.09538 36.6555 11.8329
3 2.17954 35.7118 11.9427
2 1.05348 33.3714 12.8623
1 1.47788 35.523 13.0992
1 0.81739 34.2965 13.4874
2 1.59623 37.6268 13.7622
1 1.11681 36.6517 13.8729
1 6.77864 34.0617 14.5345
2 6.35134 33.0701 14.7354
1 0.107977 36.4907 14.9204
1 6.4211 35.1883 15.3564
1 6.44598 37.5514 15.8483
3 6.58192 38.6995 15.5583
1 5.41192 35.4013 16.5102
4 5.4702 36.931 16.8749
3 4.76036 34.56 17.0651
2 2.92245 36.2464 18.0069
1 4.55782 37.7342 17.7641
1 3.32804 37.2387 18.3032
2 5.79737 39.4529 17.8419
1 4.8723 39.0542 18.2097
1 2.5234 38.0237 19.1775
2 1.60021 37.637 19.5637
1 4.11221 39.931 19.0652
1 2.88001 39.3691 19.4983
3 6.841 41.1257 19.0646
4 4.49613 41.2818 19.6039
2 2.17897 39.9511 20.1278
1 5.94819 41.7155 19.5779
3 2.95001 41.6667 21.5951
1 3.84628 41.9421 20.8948
1 6.13102 42.8724 20.6131
1 4.87212 43.0308 21.3633
2 1.32133 43.4594 20.2344
1 0.430234 43.673 20.8039
1 4.83587 44.1094 22.3094
2 3.89277 44.3117 22.8875
1 0.36266 44.5559 21.923
1 6.05239 44.7848 22.6646
2 1.25744 45.136 22.2152
2 6.52611 46.2354 26.5144
3 6.11736 45.4707 23.8997
1 0.057165 45.2661 26.1824
1 6.79823 44.8146 24.8273
2 0.828812 44.8377 28.1552
2 3.39415 40.5161 27.9463
2 4.16238 42.9975 27.3768
1 0.723573 44.439 27.136
1 0.416714 43.5027 24.5138
2 0.215247 43.0228 23.57
1 2.73957 41.0153 27.254
1 1.2861 43.1522 26.8274
1 3.44396 43.1269 28.192
2 1.92884 40.2582 27.0017
1 1.10167 42.6958 25.4524
2 3.33775 44.2043 28.2806
2 3.26824 41.2368 26.2863
2 3.82639 42.7929 29.1699
1 2.10268 42.3478 27.8181
2 1.54421 41.7645 25.1128
1 1.27462 41.9901 28.9946
2 6.56888 40.983 27.7629
2 2.50161 43.2155 30.4274
1 6.90243 41.3302 28.7648
1 1.62132 42.6023 30.2802
1 6.0926 41.0645 29.874
1 0.822608 42.2801 31.3779
2 5.12226 40.5281 29.7579
2 1.09223 42.6951 32.3761
1 6.51505 41.5038 31.2048
3 5.78068 41.1945 32.2801
2 1.34805 39.8832 32.4514
1 6.40889 40.8415 33.4285
1 0.826922 40.1466 33.4089
2 4.90033 41.6861 34.7288
1 5.87009 41.2119 34.6887
1 1.41432 39.6973 34.6212
2 2.38243 39.1306 34.592
1 6.45545 40.7844 35.937
1 0.816959 39.9828 35.9306
1 6.10179 40.9732 37.4132
3 5.1369 41.497 37.8603
1 1.40696 39.5961 37.2415
4 0.362592 40.2219 38.2759
3 2.46218 39.0617 37.3336
1 0.587752 40.3415 39.6975
2 2.37641 39.0466 0.031656
2 5.85986 41.7609 0.376347
1 1.63765 39.6191 0.654218
1 6.68447 41.2085 0.827859
1 1.82701 39.6676 2.06939
1 6.85718 41.287 2.21228
2 6.18911 41.9249 2.81915
3 2.99981 39.8536 5.03662
1 0.995378 40.5097 2.84106
4 2.9433 38.8934 2.69126
1 3.50411 39.2136 4.1658
3 4.16727 37.9206 0.785362
1 4.14462 38.3418 1.90361
2 1.16703 40.4759 3.93688
1 4.93698 38.6592 4.24091
1 5.294 38.1512 2.85804
2 5.55497 38.7828 6.34238
1 5.82051 38.4895 5.33536
1 6.59618 37.5073 2.62582
2 6.89418 37.1122 1.64352
1 0.209863 37.8982 5.10046
1 0.521541 37.4084 3.75629
3 1.15128 37.6438 6.02025
2 1.48332 36.8935 3.62783
2 1.46619 53.7675 7.5128
1 0.554543 53.2312 7.80846
1 6.79616 52.4469 6.76411
2 5.88461 52.3987 13.1304
2 0.753142 53.7283 9.88608
2 3.8651 53.8727 11.1197
1 0.159222 53.2228 9.14542
1 5.61806 51.7139 7.14591
2 5.05488 51.2087 6.40056
1 5.92651 52.3917 9.56006
1 6.10259 52.8477 12.1417
1 5.21315 51.6527 8.49495
2 0.278566 52.7755 12.0765
1 3.87615 52.7595 10.9742
2 5.78142 53.9161 12.282
2 4.39832 51.0236 8.83392
1 5.36663 52.1642 10.9293
2 3.30756 52.5286 10.0382
2 3.32834 52.401 11.8768
1 5.34185 50.7268 11.3459
2 3.22068 50.3629 10.8082
2 0.503513 50.7088 12.2147
1 4.14581 49.9636 11.1705
1 6.50283 50.1256 12.0138
1 4.01369 48.644 11.706
1 6.35379 48.8115 12.5139
2 3.05064 48.084 11.6136
2 0.21984 48.3257 13.0646
1 5.18674 48.0008 12.2094
3 5.29769 46.5794 12.2635
2 5.12212 44.0225 12.145
1 4.41906 45.9676 13.0092
1 4.4129 44.5335 12.7954
2 3.54695 47.5941 14.1919
1 3.45829 46.5915 13.8859
1 3.39876 43.702 13.2969
2 3.37866 42.6623 12.9865
1 2.42633 45.78 14.4283
1 2.38584 44.2839 14.1616
1 1.37435 46.0411 15.5163
3 1.18848 47.1688 15.874
1 1.29843 43.6459 14.9716
4 0.597855 44.7557 15.8622
3 0.88741 42.5442 14.8307
2 5.59468 42.6246 16.131
1 6.23749 44.6224 16.6681
1 5.3639 43.4747 16.7657
2 6.48816 46.6546 17.4532
1 5.89424 45.7173 17.4875
1 4.23646 43.4687 17.6216
2 3.58335 42.6135 17.6181
1 4.92031 45.6671 18.5657
1 3.99175 44.5792 18.4728
3 0.570545 47.6673 19.5215
4 5.18365 46.4941 19.7499
2 3.10264 44.6255 19.0865
1 6.32559 47.6882 19.7555
3 3.24876 46.2208 21.1918
1 4.10219 46.925 20.7567
1 5.63104 48.8096 20.4698
1 4.3056 48.4319 21.062
2 0.048709 50.4783 19.9649
1 6.06392 50.1898 20.4987
1 3.53837 49.4304 21.7227
2 2.53893 49.1335 22.114
1 5.28891 51.1605 21.1821
1 4.0512 50.7638 21.8071
2 5.64655 52.1985 21.1738
2 2.81947 53.7638 24.1428
3 3.40597 51.6662 22.573
1 3.79765 53.2957 24.365
1 4.21267 52.1889 23.5538
2 4.3064 54.574 26.1126
2 1.8084 52.2407 26.3673
2 0.164503 55.7197 25.9264
1 4.59701 53.7139 25.4867
1 5.54648 51.6454 23.7665
2 5.93277 50.7875 23.2109
1 1.10271 52.592 27.2218
1 5.83448 53.0772 25.7943
1 0.735517 54.7708 25.9574
2 1.76296 53.0307 27.9403
1 6.31784 52.0468 24.872
2 1.71062 54.9333 26.4939
2 0.67221 51.7395 27.75
2 0.888663 54.4257 24.9023
1 6.84943 53.6355 26.7581
2 0.431213 51.6119 25.0186
1 6.21644 54.1346 27.995
2 4.53858 52.6516 27.9277
2 0.484617 55.9663 28.3587
1 4.97156 53.4756 28.4861
1 6.57396 55.3339 28.7279
1 4.27388 53.9028 29.6338
1 5.95868 55.7022 29.95
2 3.40079 53.35 29.9335
2 6.2745 56.6176 30.4615
1 4.92675 54.8648 30.5033
3 4.5152 55.0027 31.8518
2 6.41632 52.9856 31.6674
1 5.18499 54.4719 32.8303
1 6.14837 53.3185 32.6874
2 4.12142 55.6418 34.3139
1 4.84971 54.8579 34.1848
1 6.69242 52.6809 33.7928
2 0.504632 51.9152 33.624
1 5.34374 54.1611 35.3145
1 6.33107 53.0046 35.1953
1 5.02001 54.2278 36.8146
3 3.97887 54.6841 37.1735
1 6.89175 52.6377 36.5179
4 6.10197 53.3681 37.6196
3 0.81494 51.7816 36.6436
1 6.43787 53.4121 39.075
2 1.18172 51.9804 39.1329
2 4.68857 54.7197 39.4273
1 0.617897 52.7549 39.7113
1 5.68361 54.3346 0.150423
1 1.21493 53.2074 1.23725
1 6.1124 54.7033 1.46905
2 5.49585 55.4401 2.08561
3 2.77525 54.4153 3.59901
1 0.420045 54.1554 1.95592
4 2.54049 52.7993 1.75996
1 3.10505 53.4012 3.05935
3 3.67956 51.0917 0.226845
1 3.65599 51.7749 1.19832
2 0.697649 54.4881 2.9831
1 4.50761 52.7913 3.32286
1 4.82102 51.8859 2.19658
2 5.05268 53.6263 5.29682
1 5.37986 53.0129 4.44614
1 6.16062 51.2741 2.19137
2 6.47407 50.6218 1.39102
1 6.59024 52.2612 4.50015
1 0.037041 51.4388 3.36563
3 0.505965 52.3964 5.55449
2 1.00509 50.9558 3.37107
2 3.01511 58.0698 11.0105
1 1.97204 57.7255 11.154
1 1.36109 56.8831 10.1719
2 0.704791 59.084 14.8738
2 1.70086 58.9743 12.9101
2 4.37825 59.1767 12.8131
1 1.21661 58.2218 12.2472
1 0.019722 56.4561 10.3815
2 6.41735 55.8789 9.62575
1 6.80575 57.7072 12.5715
1 6.84536 58.3665 15.1401
1 6.24579 56.768 11.6115
2 6.18024 58.7625 15.8962
1 5.12644 59.2703 13.6457
2 0.46167 57.5002 15.5941
2 5.27109 56.2899 11.7978
1 5.96383 57.9753 13.8604
2 4.47075 59.4506 14.5536
2 5.77995 60.1604 13.3881
1 5.15793 56.7684 14.2019
2 3.20383 57.7034 13.8848
2 6.84682 55.4753 14.7697
1 3.70463 56.8041 14.0768
1 5.78731 55.5224 14.5825
1 2.9464 55.618 14.151
1 5.00721 54.3569 14.7602
2 1.87922 55.6602 13.9474
2 5.47411 53.3994 15.0363
1 3.58429 54.3535 14.4513
3 3.05422 53.0968 14.3881
2 1.8876 50.8299 14.7392
1 2.0737 52.9205 15.2769
1 1.47509 51.6022 15.3219
2 2.12655 54.9262 16.21
1 1.5765 53.9547 16.1468
1 0.309911 51.2751 16.1106
2 6.76918 50.3153 16.1273
1 0.470059 53.6938 17.0355
1 6.76259 52.3528 17.0062
1 6.65305 54.4981 18.1452
3 6.79652 55.6698 18.1194
1 5.51171 52.2619 17.8811
4 5.50227 53.5626 18.7432
3 4.70058 51.3658 17.8767
2 2.76441 52.719 18.9987
1 4.34487 54.2148 19.3914
1 2.99847 53.7124 19.4825
2 5.65295 55.9248 20.047
1 4.61807 55.493 20.0197
1 2.00951 54.431 20.1887
2 1.01456 54.0122 20.2995
1 3.65524 56.2454 20.7275
1 2.34353 55.7024 20.7575
3 6.29821 57.9858 20.7924
4 4.0521 57.4188 21.6199
2 1.54561 56.1402 21.3437
1 5.47168 58.0503 21.6566
3 2.47622 57.0013 23.4772
1 3.4391 57.5582 23.0534
1 5.74305 58.6658 23.0141
1 4.4972 58.3066 23.8536
2 0.638667 59.8844 22.9637
1 6.69123 59.6061 23.5293
1 4.39234 58.8155 25.1801
2 3.53015 58.5588 25.7913
1 6.53545 60.1535 24.8456
1 5.393 59.7406 25.6084
2 0.396481 60.8544 25.2033
2 5.23301 62.032 28.8072
3 5.1291 60.5088 26.7648
1 5.78413 61.1086 28.9384
1 5.89849 60.2345 27.7796
2 6.54549 61.5627 30.9301
2 2.36813 57.443 30.9838
2 2.6365 61.2951 30.8718
1 6.55127 60.8636 30.0788
1 6.84644 59.1146 27.7156
2 0.066245 58.4771 26.851
1 2.63996 58.5094 30.9022
1 0.59595 59.7341 30.0774
1 2.11326 60.8088 31.752
2 3.07601 58.6784 29.9596
1 0.668078 58.8885 28.8914
2 1.34194 61.4397 32.1851
2 3.46975 58.5562 31.6596
2 2.8693 60.7947 32.5717
1 1.46611 59.4399 31.3106
2 1.3177 58.0421 28.8806
1 0.685931 58.8309 32.4497
2 5.59302 59.4335 31.7654
2 2.38094 57.777 33.4317
1 6.13156 58.9303 32.5681
1 1.31141 58.0034 33.4821
1 5.44299 58.4526 33.6779
1 0.581002 57.513 34.5754
2 4.37518 58.6237 33.6578
2 1.23754 56.9557 35.2695
1 6.05483 57.7597 34.826
3 5.35047 57.5042 35.892
2 0.446287 55.6185 36.5038
1 5.98875 57.2212 37.1024
1 0.209725 56.3506 37.2388
2 4.79779 58.7066 38.1405
1 5.65506 58.0496 38.2162
1 1.13957 56.3683 38.3364
2 1.99553 55.6562 38.3947
1 6.48065 58.0828 39.4067
1 0.859013 57.2539 39.4289
1 6.42887 58.7944 1.00181
3 5.53369 59.4119 1.45703
1 1.65521 57.5343 0.98157
4 0.874344 58.5894 1.79329
3 2.72671 57.0569 1.19919
1 1.27932 59.2546 3.07175
2 3.16095 58.2113 3.13738
2 6.46828 60.5773 3.49758
1 2.54071 58.9241 3.70998
1 0.556614 60.2235 3.82313
1 3.08478 59.3718 4.95695
1 1.0026 60.7156 5.07459
2 0.335667 61.4469 5.57186
3 4.40253 59.4956 7.937
1 2.21107 60.2512 5.67077
4 4.43219 58.9536 5.47088
1 4.93482 58.9786 7.01077
3 5.20711 57.5683 3.57607
1 5.35353 58.027 4.67878
2 2.47873 60.731 6.61813
1 6.29903 58.2211 6.96955
1 6.54695 57.6746 5.62309
2 0.175724 58.445 8.98382
1 0.329697 57.9989 8.02528
1 0.829392 56.85 5.44746
2 1.10402 56.4564 4.48485
1 1.39733 57.0417 7.89374
1 1.62909 56.5349 6.56652
3 2.03476 56.6297 8.97942
2 2.47663 55.9263 6.47994
2 1.05826 67.0046 8.6569
1 0.831286 66.1098 9.25973
1 1.04831 64.8112 8.62618
2 1.45245 65.86 13.5183
2 0.030356 67.2414 10.8907
2 6.07013 67.424 12.9864
1 0.256559 66.2413 10.53
1 0.805529 63.6281 9.43088
2 1.09861 62.6212 9.10822
1 6.8761 65.0587 11.3533
1 0.561698 65.2635 13.8345
1 0.24781 63.7855 10.7286
2 0.246319 65.6576 14.8466
1 5.43715 66.4718 12.9238
2 0.914862 64.2334 14.1317
2 0.013217 62.8839 11.2674
1 6.28967 65.1575 12.7506
2 4.74183 66.5782 12.081
2 4.86556 66.4113 13.8851
1 5.34474 64.0239 13.1292
2 4.73492 63.1887 11.2176
2 5.09674 64.688 15.2931
1 4.62775 63.0993 12.2696
1 4.86748 63.9318 14.5241
1 3.72688 62.0975 12.7219
1 4.00564 62.9558 15.018
2 3.28501 61.3766 12.0515
2 3.71884 62.9211 16.0904
1 3.4526 61.9232 14.1224
3 2.57209 61.005 14.457
2 3.99101 59.8327 16.3138
1 2.1921 60.9099 15.7836
1 3.08411 60.279 16.7059
2 0.261414 61.7977 15.4374
1 0.889892 61.3439 16.1844
1 2.7918 60.2343 18.0953
2 3.52179 59.7666 18.8041
1 0.521997 61.3186 17.5744
1 1.52949 60.8127 18.5373
1 6.17028 61.6475 18.3987
3 5.11748 62.0182 17.9744
1 0.930143 60.902 19.9534
4 6.41588 61.3461 19.8938
3 1.56436 60.7799 20.9674
2 3.71965 61.4144 20.7197
1 5.69283 62.0715 21.1094
1 4.35715 61.9318 21.4179
2 0.56771 63.0635 21.7975
1 6.42087 62.8617 22.0288
1 3.76658 62.3323 22.6586
2 2.71327 62.1138 22.9121
1 5.8624 63.4355 23.26
1 4.53078 63.1087 23.5926
3 1.64075 65.0534 22.71
4 6.5697 64.5061 24.0185
2 4.13074 63.4322 24.4878
1 0.961889 65.282 23.6421
3 4.89516 65.1222 25.7833
1 5.89394 65.3399 25.1885
1 1.17236 66.4041 24.6456
1 6.87552 66.4552 25.581
2 3.23548 67.1018 24.2941
1 2.33145 67.2179 24.8889
1 0.048702 67.2542 26.7276
2 6.1368 67.2718 27.4493
1 2.32373 68.1274 25.9694
1 1.21498 68.1072 26.9247
2 3.23535 68.7394 26.1405
2 1.84727 70.5261 26.4838
3 1.31286 68.4789 28.2192
1 2.10126 70.6832 27.492
1 1.88518 69.6449 28.5049
2 2.67937 72.701 27.2025
2 5.5901 73.099 28.9826
2 3.80209 74.4228 27.8338
1 2.62495 71.902 27.9136
1 2.25466 69.8266 29.8997
2 2.11872 69.0348 30.6877
1 5.12086 73.1931 29.9806
1 3.00799 72.1513 29.3187
1 3.40482 74.662 28.8467
2 5.61779 74.0189 30.5852
1 2.82431 71.0859 30.2625
2 2.34557 75.0536 28.7996
2 5.31069 72.2527 30.5672
2 3.97322 75.5213 29.2041
1 3.5535 73.4543 29.8145
2 3.07842 71.1934 31.291
1 2.87574 73.728 31.1506
2 0.845104 74.1152 30.2688
2 4.62581 73.3048 32.4918
1 1.42883 74.0268 31.1872
1 3.53575 73.5566 32.4422
1 0.739666 74.1066 32.3878
1 2.82656 73.6472 33.6554
2 6.55178 74.2742 32.4121
2 3.34644 73.4845 34.628
1 1.38235 73.7911 33.6729
3 0.605258 73.4065 34.6473
2 2.35643 71.4277 34.5369
1 1.24251 72.7488 35.7708
1 2.21948 71.7383 35.5553
2 0.133319 73.7457 37.327
1 0.893174 72.9985 37.1466
1 3.03622 71.0985 36.5669
2 3.82505 70.4019 36.3567
1 1.58083 72.3633 38.251
1 2.70823 71.4152 37.9409
1 1.46645 72.502 0.069369
3 0.423165 72.8112 0.572607
1 3.52578 71.2163 39.2189
4 2.74288 71.8518 0.6724
3 4.59357 70.685 39.3033
1 2.86642 71.3875 2.11777
2 4.09014 69.6251 1.70329
2 1.66485 73.0309 2.95515
1 3.60345 70.2268 2.48464
1 2.21927 72.0979 3.16236
1 3.68363 69.666 3.81166
1 2.26925 71.6053 4.50031
2 1.66491 72.1162 5.26485
3 3.92945 68.0439 6.57576
1 2.90816 70.342 4.78555
4 4.54484 68.4971 4.22662
1 4.66058 67.8462 5.66498
3 6.22262 68.5404 2.44579
1 5.79232 68.0339 3.45375
2 2.89783 69.9722 5.78518
1 5.89506 67.0022 5.70313
1 6.56708 67.1178 4.32194
2 6.06412 66.2332 7.75654
1 6.53957 66.2507 6.76543
1 0.92414 66.4423 4.09536
2 1.38443 66.5442 3.11815
1 0.813717 65.5376 6.4365
1 1.43457 65.6089 5.11004
3 1.4157 64.727 7.31973
2 2.36446 65.0694 4.88385
2 4.7916 69.3683 12.0667
1 5.43449 69.6823 12.8941
1 6.8665 69.6896 12.8745
2 6.38894 72.4815 17.1307
2 3.63153 70.3099 13.942
2 3.07929 72.4069 15.1159
1 4.72478 70.2125 14.0014
1 0.683502 70.1554 14.0237
2 1.77149 70.1343 14.0525
1 5.3791 70.654 15.2141
1 5.57027 71.7887 17.5334
1 6.84953 70.5582 15.1632
2 4.98031 72.3551 18.3189
1 3.9281 72.6144 15.7969
2 6.02822 70.8767 18.0471
2 0.520055 70.8026 16.0233
1 4.62672 71.2593 16.3436
2 3.63889 73.2549 16.7149
2 4.68234 73.2944 15.3263
1 3.639 70.3238 16.9452
2 4.14515 68.4285 15.9561
2 2.845 71.9201 18.2578
1 3.45646 68.9026 16.6511
1 2.74609 70.8527 17.9906
1 2.45009 68.1103 17.256
1 1.81479 70.0352 18.6491
2 2.40721 67.0759 17.0175
2 1.22089 70.3626 19.5116
1 1.60393 68.6197 18.3083
3 0.534141 67.9677 18.7747
2 2.16587 68.1457 20.8304
1 0.15304 68.4204 20.0089
1 1.15335 68.4858 21.0397
2 4.92151 68.5967 19.5987
1 5.66729 68.6518 20.3736
1 0.890827 68.9018 22.379
2 1.72507 68.9149 23.1103
1 5.38924 69.2585 21.6652
1 6.47351 69.3332 22.7247
1 4.14972 69.8461 22.3113
3 3.12734 69.9939 21.728
1 5.9862 70.1085 23.9481
4 4.53009 70.4813 23.7228
3 6.67942 70.4518 24.8176
2 1.85175 71.072 23.8706
1 3.88544 71.7338 24.3149
1 2.49523 71.9093 24.1928
2 5.77233 72.7163 24.9902
1 4.69405 72.8147 24.8178
1 1.9587 73.246 24.3492
2 0.886573 73.3723 24.1517
1 4.19306 74.1377 24.9526
1 2.8195 74.3381 24.7475
3 4.18589 77.1731 23.9717
4 5.06662 75.3426 25.3245