LAMMPS data file via write_data, version 19 Nov 2024, timestep = 0, units = real

5160 atoms
4 atom types

0 6.908563 xlo xhi
0 300 ylo yhi
0 39.715602 zlo zhi
0 0 0 xy xz yz

Masses

1 12.0107
2 1.00794
3 15.999
4 14.0067

Atoms # charge

1 2 0 0.1524140000000001 12.651744 3.6851770000000004 2 0 0
2 1 0 1.1065520000000018 12.165068 3.481053000000001 2 0 0
3 1 0 2.107144 12.779427000000004 2.624658000000001 2 0 0
4 2 0 4.471253 7.244951000000001 4.559079 2 0 0
5 2 0 0.5812970000000004 10.428401 4.676065000000001 2 0 0
6 2 0 4.037916999999998 8.557415000000002 6.7541990000000025 2 0 0
7 1 0 1.414223 10.917981 4.089663 2 0 0
8 1 0 3.462471 12.302002 2.723271 2 0 0
9 2 0 4.317196999999994 12.912626 2.356668 2 0 0
10 1 0 2.715366999999998 10.243829 4.002598 2 0 0
11 1 0 4.270035999999998 8.20327 4.059215 2 0 0
12 1 0 3.7060720000000007 11.038503 3.282533 2 0 0
13 2 0 4.084305999999998 8.075706 2.9748090000000005 2 0 0
14 1 0 3.6709389999999997 9.410189 6.164563000000002 2 0 0
15 2 0 5.241769999999996 8.710585 4.194967 2 0 0
16 2 0 4.706073999999999 10.593563 3.2542110000000015 2 0 0
17 1 0 3.076783 8.987892 4.757924 2 0 0
18 2 0 4.4614069999999995 10.175687 6.039117 2 0 0
19 2 0 2.905900999999998 9.894657 6.823879 2 0 0
20 1 0 2.0070230000000007 7.9944710000000025 5.103204 2 0 0
21 2 0 2.621138000000001 6.541080000000001 3.656371 2 0 0
22 2 0 0.9928379999999991 9.169005 6.724559000000003 2 0 0
23 1 0 1.9339770000000007 6.687035000000002 4.459179 2 0 0
24 1 0 1.0616070000000009 8.197153000000002 6.212888 2 0 0
25 1 0 1.159216 5.626063 4.984623 2 0 0
26 1 0 0.27508800000000133 7.184946 6.7637030000000005 2 0 0
27 2 0 1.1389320000000005 4.625854 4.565088 2 0 0
28 2 0 6.549997 7.3851210000000025 7.6219350000000015 1 0 0
29 1 0 0.3969389999999981 5.834248 6.203251000000002 2 0 0
30 3 0 0.08888299999999996 4.737726 6.920865 2 0 0
31 2 0 1.276335999999999 4 9.140776000000002 2 0 0
32 1 0 6.438524999999999 4.870182 8.145698000000001 1 0 0
33 1 0 0.28177600000000114 4.445062 9.294568000000002 2 0 0
34 2 0 4.5631189999999995 5.688316 7.520332 1 0 0
35 1 0 5.161050999999997 5.4323890000000015 8.412229 1 0 0
36 1 0 6.839948999999998 4.730361000000001 10.647594000000002 1 0 0
37 2 0 0.5755159999999986 4.419463000000001 11.453312 2 0 0
38 1 0 4.649463 5.685169 9.738175000000002 1 0 0
39 1 0 5.516827999999999 5.268193 10.897364000000001 1 0 0
40 1 0 3.429571 6.3648440000000015 10.331157000000003 1 0 0
41 3 0 2.5070970000000004 6.786803 9.659552 1 0 0
42 1 0 4.867545000000001 5.5822290000000026 12.253436 1 0 0
43 4 0 3.5255880000000004 6.312555000000002 11.862502 1 0 0
44 3 0 5.386543 5.2626500000000025 13.265955 1 0 0
45 2 0 0.7504210000000008 6.814362000000003 11.835622 1 0 0
46 1 0 2.620475999999999 6.945274 12.897712 1 0 0
47 1 0 1.2267149999999991 7.201774000000002 12.717038 1 0 0
48 2 0 4.107317999999999 7.200797 14.438487 1 0 0
49 1 0 3.086900999999998 7.4811650000000025 14.139407000000004 1 0 0
50 1 0 0.5123369999999999 8.094432 13.596927 1 0 0
51 2 0 6.357767 8.335924 13.376982000000002 0 0 0
52 1 0 2.4505969999999992 8.332874 15.106685 1 0 0
53 1 0 1.1101920000000005 8.706199 14.723631000000003 1 0 0
54 3 0 5.419963999999999 8.076171000000002 16.067631 1 0 0
55 4 0 3.127937 8.843985 16.343343 1 0 0
56 2 0 0.5063680000000004 9.393911000000001 15.327743 1 0 0
57 1 0 4.559189 8.563445 16.764128 1 0 0
58 3 0 1.5970509999999998 10.678104000000003 17.318766000000004 1 0 0
59 1 0 2.6091399999999987 10.064333 17.297339000000004 1 0 0
60 1 0 4.8897699999999995 9.328251 18.057002 1 0 0
61 1 0 3.7236669999999994 10.256567 18.314093000000003 1 0 0
62 2 0 6.859191999999999 8.653955 18.776546 1 0 0
63 1 0 6.043249999999997 9.338112000000002 18.901550000000004 1 0 0
64 1 0 3.728174999999999 11.144105000000001 19.452616 1 0 0
65 2 0 2.8508789999999995 11.765119 19.727249000000004 1 0 0
69 2 0 6.794811999999997 12.257413000000003 19.075548 1 0 0
71 1 0 6.809104 13.081429000000004 19.786315 1 0 0
73 2 0 1.6396470000000005 13.894025000000001 18.764496 2 0 0
74 2 0 2.948628999999997 15.560068000000001 18.325847 2 0 0
75 2 0 1.126557000000001 17.336193 19.45376 2 0 0
76 1 0 0.9176549999999999 14.027942 19.591641 2 0 0
79 1 0 3.45142 15.499616 19.300098 2 0 0
82 2 0 4.39175 16.14347 19.253089 2 0 0
85 2 0 3.826067 14.461545000000003 19.549975 2 0 0
86 2 0 2.8213589999999944 17.937345000000004 19.674403 2 0 0
131 2 0 0.2471949999999985 14.904445 0.023784000000008226 2 0 1
135 1 0 2.0921279999999993 13.745413000000003 0.4069150000000115 2 0 1
137 3 0 1.6038359999999996 13.538687000000001 1.6816280000000037 2 0 1
138 2 0 3.9270129999999996 12.487185000000002 0.45861500000000077 2 0 1
139 2 0 1.6342180000000017 16.621414 2.6230580000000003 2 0 0
140 1 0 2.418328000000001 16.474849 3.3215380000000003 2 0 0
141 1 0 3.8088630000000006 16.748267 2.9708100000000006 2 0 0
142 2 0 4.5782959999999955 14.431652 7.816217000000002 2 0 0
143 2 0 1.0791439999999997 15.696431000000006 4.798311 2 0 0
144 2 0 1.012009 17.058594 7.12543 2 0 0
145 1 0 2.1364719999999977 15.915972 4.572261 2 0 0
146 1 0 4.839743999999997 16.538045 3.9964530000000007 2 0 0
147 2 0 5.858314999999998 16.772936 3.790703000000001 2 0 0
148 1 0 3.1034099999999984 15.693995 5.663514 2 0 0
149 1 0 3.996778 15.393114 7.976574000000002 2 0 0
150 1 0 4.493553000000001 15.934517 5.226337000000002 2 0 0
151 2 0 4.711258999999999 16.200434 7.832303 2 0 0
152 1 0 2.0511029999999986 16.952525 7.442925000000002 2 0 0
153 2 0 3.7215529999999974 15.460249000000005 9.076099 2 0 0
154 2 0 5.318254999999999 15.824148000000005 5.940053 2 0 0
155 1 0 2.7055479999999985 15.533624 7.074433 2 0 0
156 2 0 2.0622169999999986 17.191931 8.549649 2 0 0
157 2 0 2.577521999999995 17.774793 6.968420000000002 2 0 0
158 1 0 1.6591209999999998 14.501893000000003 7.390978 2 0 0
159 2 0 1.9241739999999992 13.148575 5.642995000000001 2 0 0
160 2 0 1.139964000000002 15.434158 9.410554 2 0 0
161 1 0 1.3339589999999986 13.367917 6.513450000000002 2 0 0
162 1 0 0.9585089999999987 14.619719000000005 8.668058 2 0 0
163 1 0 0.35910699999999973 12.465659000000004 6.9068070000000015 2 0 0
164 1 0 0.028020999999999477 13.640696 9.069933000000002 2 0 0
165 2 0 0.1912930000000001 11.541008000000001 6.383231000000001 2 0 0
166 2 0 6.572998999999999 13.714861 10.086426 1 0 0
167 1 0 6.574630999999999 12.533186 8.229134 1 0 0
168 3 0 5.592669999999998 11.657543 8.540136 1 0 0
169 2 0 4.747922 9.467096 9.912619 1 0 0
170 1 0 4.863613999999999 11.650271 9.681282 1 0 0
171 1 0 4.259885 10.426598 10.170826000000002 1 0 0
172 2 0 4.571689999999999 13.790445000000002 9.943397 1 0 0
173 1 0 4.146939000000001 12.819405 10.138686000000003 1 0 0
174 1 0 3.1159659999999993 10.254943000000006 11.042919000000003 1 0 0
175 2 0 2.7856680000000003 9.302221 11.367307000000006 1 0 0
176 1 0 2.9883859999999998 12.757539 10.977014 1 0 0
177 1 0 2.420246 11.464146000000003 11.414840000000002 1 0 0
178 1 0 2.2674339999999984 13.870708 11.787890000000003 1 0 0
179 3 0 2.6513669999999996 14.993355000000001 11.817731000000004 1 0 0
180 1 0 1.0893669999999998 11.658842 12.232481 1 0 0
181 4 0 1.0457660000000004 13.155004 12.550921 1 0 0
182 3 0 0.20726899999999993 10.887479 12.436037000000002 1 0 0
183 2 0 5.348178 12.509787 13.660620000000002 0 0 0
184 1 0 0.18095599999999984 13.865914 13.549609000000004 1 0 0
185 1 0 5.790442 13.462701 14.071628000000006 0 0 0
186 2 0 1.5592140000000003 15.453275000000005 13.738057000000003 1 0 0
187 1 0 0.6353409999999995 15.062372000000005 14.160293000000003 1 0 0
188 1 0 5.196161 14.170821000000004 15.159710000000004 0 0 0
189 2 0 4.257556 13.81136 15.606544000000005 0 0 0
190 1 0 0.08102900000000018 15.88219 15.204008000000002 1 0 0
191 1 0 5.765971 15.356316 15.722054000000004 0 0 0
192 3 0 3.002703 17.259045 14.338943000000004 1 0 0
193 4 0 0.7706749999999997 17.156949 15.570288 1 0 0
194 2 0 5.234972 15.909145 16.489612000000005 0 0 0
195 1 0 2.289939 17.552623000000004 15.239844 1 0 0
196 3 0 6.516854999999999 17.650932 17.625433 0 0 0
197 1 0 0.554608 17.855963 16.900376000000005 1 0 0
198 1 0 2.8453670000000004 18.464451 16.319652 1 0 0
269 2 0 1.9610740000000002 18.420471 1.995577000000004 2 0 1
270 1 0 2.243132000000001 18.173657 0.9763250000000164 2 0 1
273 1 0 3.336426000000001 17.31167 0.7625230000000015 2 0 1
275 3 0 4.237975 16.92332 1.7399560000000094 2 0 1
66 1 0 5.9791909999999975 10.248562000000005 20.0091 1 0 0
67 1 0 4.893811 11.143907000000006 20.25339 1 0 0
68 2 0 6.857799000000001 10.320206000000004 20.671545 1 0 0
70 3 0 4.898945 12.287605000000001 21.112416 1 0 0
72 1 0 5.867517 13.139223000000005 20.898222 1 0 0
77 1 0 6.024260000000001 14.274830000000001 21.791425000000007 1 0 0
78 2 0 5.3297859999999995 14.424592000000004 22.62729500000001 1 0 0
80 1 0 1.2361070000000016 15.044406 20.587107 2 0 0
81 1 0 2.032589999999999 17.359502000000003 20.075075 2 0 0
83 1 0 0.25469700000000134 15.108371000000005 21.66283500000001 2 0 0
84 2 0 1.6680199999999998 17.908143 20.98417400000001 2 0 0
87 1 0 2.480926999999994 15.950986000000006 20.428734 2 0 0
88 2 0 0.3462069999999995 15.889499000000006 22.44192400000001 2 0 0
89 1 0 3.3641850000000018 16.095144 21.694934000000007 2 0 0
90 2 0 2.2504550000000014 14.632155000000004 22.87877200000001 2 0 0
91 2 0 4.858728000000001 17.628873 21.002778 2 0 0
92 1 0 3.0000299999999998 15.412097000000003 22.941048 2 0 0
93 1 0 4.464847 17.036205 21.833379 2 0 0
94 1 0 3.6007830000000003 15.696551000000003 24.193855 2 0 0
95 1 0 5.124190000000001 17.203844000000004 23.092243000000007 2 0 0
96 2 0 3.234921 15.193452 25.046846 2 0 0
97 2 0 5.949352 17.895694 23.097193 2 0 0
98 1 0 4.802708999999993 16.525541 24.304106 2 0 0
99 3 0 5.775970999999998 16.365565 25.294343000000012 2 0 0
100 2 0 0.42598699999999784 15.069944 27.014781000000006 3 0 0
101 1 0 5.470623999999998 16.241546 26.556876 2 0 0
102 1 0 6.403874000000001 15.486616 27.411693000000003 2 0 0
103 2 0 3.571452 17.384679 26.49258600000001 2 0 0
104 1 0 4.230918999999998 16.784469 27.115353000000006 2 0 0
105 1 0 6.161248 15.193528 28.746426 2 0 0
106 2 0 6.863906999999998 14.667198000000003 29.343184000000004 2 0 0
107 1 0 3.9635540000000007 16.461294 28.477217000000007 2 0 0
108 1 0 4.922777000000002 15.602981 29.332278000000006 2 0 0
109 1 0 2.7437279999999995 16.893115000000005 29.25901 2 0 0
110 3 0 1.90004 17.671431 28.90784 2 0 0
111 1 0 4.287895 15.365835000000006 30.677681000000003 2 0 0
112 4 0 2.848978000000001 16.182109 30.598053000000004 2 0 0
113 3 0 4.776815999999998 14.686522 31.517385000000008 2 0 0
114 1 0 1.917285 16.338128 31.745283000000008 2 0 0
115 2 0 3.1145739999999975 15.192005 33.08726000000001 2 0 0
116 2 0 0.44253900000000096 17.584331 30.603570000000012 2 0 0
117 1 0 2.1425929999999984 15.750189000000006 33.032048 2 0 0
118 1 0 0.7132210000000003 17.110678 31.589473 2 0 0
119 1 0 1.2798589999999985 15.879838 34.185641000000004 2 0 0
120 1 0 6.705973999999998 17.165579000000005 32.670266000000005 1 0 0
121 2 0 5.7821549999999995 17.714893 32.534497 1 0 0
122 3 0 6.619215999999998 16.003421 36.948965 1 0 0
123 1 0 0.01961999999999916 16.528312 33.920818 2 0 0
124 4 0 1.6412680000000006 15.470326 35.542767 2 0 0
125 1 0 0.7508029999999983 15.441438000000005 36.814249 2 0 0
126 3 0 3.5553189999999977 13.967732000000005 35.086693000000004 2 0 0
127 1 0 2.856188000000002 14.46752 35.907264 2 0 0
128 2 0 6.2216109999999984 16.518409 34.691368 1 0 0
129 1 0 1.4721639999999985 14.706521 37.943932 2 0 0
130 1 0 2.732783 14.082975 37.349515 2 0 0
132 1 0 1.1881279999999994 14.514488000000005 39.332456 2 0 0
133 1 0 3.6125629999999993 13.283172 38.182616 2 0 0
134 2 0 4.514393 12.924593 37.669441 2 0 0
136 1 0 3.2670610000000004 13.104902000000001 39.536195 2 0 0
244 2 0 4.083614999999998 18.25053 30.983736 1 0 0
251 3 0 4.024544 18.629123 33.935051 1 0 0
267 1 0 1.39894 18.684395 39.609984 2 0 0
268 1 0 1.7979109999999987 18.453794 38.193731 2 0 0
271 1 0 2.992375999999999 17.637083 37.966578 2 0 0
272 2 0 3.3523960000000015 17.448631 36.972255000000004 2 0 0
274 1 0 3.7078630000000024 17.107921000000005 39.082758 2 0 0
276 2 0 4.584500000000001 16.518534 38.817303 2 0 0
199 1 0 1.7485439999999994 18.757007000000005 17.300334 1 0 0
200 2 0 4.978389 18.923187 15.821041 1 0 0
201 1 0 4.139312999999998 19.131793000000002 16.502214 1 0 0
202 1 0 1.9341019999999993 19.77285 18.301678 1 0 0
203 2 0 1.1066009999999995 20.039798 18.975861 1 0 0
204 1 0 4.332868999999999 20.04468 17.555891 1 0 0
205 1 0 3.2201249999999995 20.388965000000002 18.475444 1 0 0
206 2 0 5.297652 20.52262 17.679188 1 0 0
208 3 0 3.3869250000000006 21.299476 19.44708 1 0 0
216 2 0 5.099636999999999 19.145213 19.826585 1 0 0
260 3 0 6.4206129999999995 19.734123000000004 0.9869030000000063 1 0 1
277 2 0 3.430660000000001 25.630443 2.391863 2 0 0
278 1 0 3.2267579999999993 24.817917000000012 3.049897000000001 2 0 0
279 1 0 3.631673999999999 23.510885000000005 2.63421 2 0 0
280 2 0 3.333158 24.343510000000002 7.431899 2 0 0
281 2 0 2.3942509999999975 26.044153000000005 4.621604 2 0 0
282 2 0 1.4744140000000001 25.982462 7.13397 2 0 0
283 1 0 2.6202599999999996 25.04481600000001 4.328038 2 0 0
284 1 0 3.4168339999999997 22.38494700000001 3.530592 2 0 0
285 2 0 3.6921659999999994 21.336233000000004 3.298694 2 0 0
286 1 0 2.2216440000000004 23.918866 5.14251 2 0 0
287 1 0 2.4434479999999974 23.691543 7.541132 2 0 0
288 1 0 2.6731360000000004 22.592739000000005 4.712486000000001 2 0 0
289 2 0 1.9616390000000004 23.85810100000001 8.517796000000002 2 0 0
290 1 0 0.6970329999999981 25.356093000000005 6.626385 2 0 0
291 2 0 2.7227389999999994 22.635125000000002 7.622662000000003 2 0 0
292 2 0 2.476038 21.705057000000007 5.332596 2 0 0
293 1 0 1.3998189999999993 23.95141 6.398259 2 0 0
294 2 0 0.25426899999999913 25.817590000000003 5.732966 2 0 0
295 2 0 6.7681439999999995 25.248124 7.361773000000002 1 0 0
296 1 0 0.267281000000001 22.899644000000006 6.481307 2 0 0
297 2 0 0.16953299999999905 22.229461 4.436363 2 0 0
298 2 0 0.03212600000000103 23.25429900000001 8.675294 2 0 0
299 1 0 6.690548 22.056876000000006 5.415215 1 0 0
300 1 0 6.599150999999998 22.624037 7.814772000000001 1 0 0
301 1 0 5.702457999999997 21.068984 5.621405 1 0 0
302 1 0 5.692867 21.597186 8.054387 1 0 0
303 2 0 5.395995 20.456065000000006 4.761496 1 0 0
304 2 0 5.368890999999998 21.47329 9.051411 1 0 0
305 1 0 5.126716 20.799147 6.925009000000001 1 0 0
306 3 0 3.9661449999999996 20.175150000000002 7.139363 1 0 0
307 2 0 5.77269 19.181840000000005 9.002768 1 0 0
308 1 0 3.732129 20.03388500000001 8.481963 1 0 0
309 1 0 4.753513000000001 19.582371000000002 9.409616000000002 1 0 0
310 2 0 1.6733769999999994 20.64496500000001 8.347649 1 0 0
311 1 0 2.4698640000000007 20.371506000000004 9.022296 1 0 0
312 1 0 4.64895 19.690759 10.811278 1 0 0
313 2 0 5.436465999999999 19.314727 11.457101000000002 1 0 0
314 1 0 2.351809 20.650288 10.454315 1 0 0
315 1 0 3.4293669999999996 20.225242 11.41482 1 0 0
316 1 0 1.1845910000000006 21.118116 11.301179 1 0 0
317 3 0 0.16823700000000072 21.50899000000001 10.800504 1 0 0
318 1 0 2.9321270000000004 20.28065100000001 12.845836 1 0 0
319 4 0 1.4337069999999987 20.821917 12.815059 1 0 0
320 3 0 3.6665609999999984 20.045723000000006 13.762241 1 0 0
321 2 0 6.025608 22.240277 12.614214 0 0 0
322 1 0 0.8201749999999998 21.646995 13.873300000000004 1 0 0
323 1 0 6.601742 22.458945 13.527238000000002 0 0 0
324 2 0 2.386924 21.504092 15.386240000000003 1 0 0
325 1 0 1.4534409999999982 21.987358 15.142900000000001 1 0 0
326 1 0 5.915765 23.281419000000003 14.468599000000003 0 0 0
327 2 0 4.990385 23.734879000000006 14.274703 0 0 0
328 1 0 0.9117189999999988 22.895899000000007 16.081892 1 0 0
329 1 0 6.57562 23.469109 15.715906000000002 0 0 0
330 3 0 3.436566999999996 24.724137 16.507688 1 0 0
331 4 0 1.5242400000000003 23.391104 17.409372 1 0 0
332 2 0 6.091037 24.145377000000007 16.470039 0 0 0
333 1 0 2.8170159999999993 24.29326 17.439532000000003 1 0 0
334 3 0 6.49757 23.637191000000012 18.825225 0 0 0
335 1 0 0.7213799999999992 23.910276000000007 18.581512000000004 1 0 0
336 1 0 2.924001 24.946327 18.80917 1 0 0
337 1 0 1.5945939999999996 24.764661000000007 19.508117 1 0 0
338 2 0 4.767733000000001 26.064533 18.943627 1 0 0
339 1 0 3.859044 25.81251 19.470909000000002 1 0 0
398 3 0 6.477514999999997 26.620244 0.9641880000000058 1 0 1
404 2 0 4.762925999999999 27.955611 0.05177100000001566 1 0 1
407 2 0 1.3236799999999977 24.43921000000001 1.7237 2 0 1
408 1 0 1.8822629999999996 24.707538000000007 0.7931660000000078 2 0 1
411 1 0 3.091221999999999 23.985231000000006 0.46104400000000156 2 0 1
413 3 0 3.7632909999999997 23.179626 1.3224780000000045 2 0 1
415 2 0 0.13573999999999917 33.640162 1.495211 2 0 0
416 1 0 0.2797319999999998 32.944106 2.305899 2 0 0
417 1 0 0.7992180000000001 31.592735 2.0799590000000006 2 0 0
418 2 0 1.3785039999999993 33.99323600000001 6.607590000000003 2 0 0
419 2 0 6.500665999999999 34.435165 3.780913 1 0 0
420 2 0 4.795228000000001 34.196308 6.876477000000003 1 0 0
421 1 0 6.889503 33.408449000000005 3.6012080000000006 1 0 0
422 1 0 1.238255000000001 30.77077100000001 3.203482 2 0 0
423 2 0 1.746920999999999 29.797871000000008 3.072914 2 0 0
424 1 0 0.15019600000000044 32.469529 4.717458000000001 2 0 0
425 1 0 0.6995649999999998 33.187979000000006 7.058636 2 0 0
426 1 0 0.8525050000000012 31.203624 4.482703000000001 2 0 0
427 2 0 0.32595499999999933 33.56509 8.061126000000002 2 0 0
428 1 0 5.395065 34.002 5.919728 1 0 0
429 2 0 1.324656999999999 32.320015 7.229820000000001 2 0 0
430 2 0 0.9402199999999995 30.593490000000006 5.362879 2 0 0
431 1 0 6.41326 32.785883 6.070467 1 0 0
432 2 0 5.893738 34.94372 5.649772000000002 1 0 0
433 2 0 4.649704000000001 33.749464 5.171534000000001 1 0 0
434 1 0 5.679341 31.622502 6.568492000000002 1 0 0
435 2 0 5.079462999999997 31.02147200000001 4.521377 1 0 0
436 2 0 6.0483129999999985 31.844786000000003 8.799741000000001 1 0 0
437 1 0 4.957238999999999 30.830017000000005 5.568404 1 0 0
438 1 0 5.545618999999999 31.256776 7.983919 1 0 0
439 1 0 4.152451999999998 29.765996 5.983808000000001 1 0 0
440 1 0 4.792836999999999 30.168253000000007 8.396942000000001 1 0 0
441 2 0 3.692027999999999 29.136563000000002 5.264371 1 0 0
442 2 0 4.671416 29.96248 9.48394 1 0 0
443 1 0 4.026140999999999 29.391234 7.393046000000001 1 0 0
444 3 0 3.0231359999999996 28.547831 7.591656000000003 1 0 0
445 2 0 4.879790000000001 27.193137 9.056417 1 0 0
446 1 0 2.8286039999999986 27.93241900000001 8.796687 1 0 0
447 1 0 3.905097 27.243948 9.498306 1 0 0
448 2 0 0.708074 28.423280000000002 8.665103 1 0 0
449 1 0 1.5087389999999987 28.006297 9.290374 1 0 0
450 1 0 3.655636 26.680865000000008 10.762367 1 0 0
451 2 0 4.465837 26.19176 11.337225000000004 1 0 0
452 1 0 1.2120140000000015 27.50299 10.596311 1 0 0
453 1 0 2.3316329999999987 26.777441 11.328953 1 0 0
454 1 0 0.06479499999999926 27.551876 11.585422 1 0 0
455 3 0 6.11409 28.402261 11.547337000000004 0 0 0
456 1 0 1.8358779999999995 26.310579000000008 12.693947000000005 1 0 0
457 4 0 0.3104699999999992 26.670745 12.798022000000001 1 0 0
458 3 0 2.4919029999999975 25.64791100000001 13.438829 1 0 0
459 2 0 4.65108 27.269943000000012 13.34902 0 0 0
460 1 0 6.610866 27.007914 14.170896 0 0 0
461 1 0 5.239243 27.32824 14.253318 0 0 0
462 2 0 1.490109 26.988038 15.300242000000004 1 0 0
463 1 0 0.41444199999999926 27.234104 15.38704 1 0 0
464 1 0 4.639045 27.806819 15.472486000000004 0 0 0
465 2 0 3.6031020000000002 28.022534 15.486935000000003 0 0 0
466 1 0 6.843904 27.767842000000005 16.622189000000002 0 0 0
467 1 0 5.452094999999999 28.015014 16.625611000000003 0 0 0
468 3 0 1.9878200000000006 30.130284 16.183042 1 0 0
469 4 0 0.7537680000000001 28.495289000000007 17.704327 1 0 0
470 2 0 4.927092 28.362112000000003 17.53643 0 0 0
471 1 0 1.5534849999999991 29.77690300000001 17.230405 1 0 0
472 3 0 5.955391 28.38758100000001 19.481703 0 0 0
473 1 0 0.03746400000000032 28.877359 18.990888000000005 1 0 0
474 1 0 1.4259060000000001 30.81061300000001 18.371796 1 0 0
475 1 0 0.6358409999999992 30.222488 19.488138000000003 1 0 0
476 2 0 2.622478999999998 32.48707 17.56686 1 0 0
477 1 0 2.0677560000000006 32.076327000000006 18.40541 1 0 0
480 1 0 2.0097849999999995 32.757325 19.675369 1 0 0
482 2 0 2.531429999999999 33.712396 19.730122 1 0 0
536 3 0 2.9769900000000002 33.926642 0.8789960000000072 1 0 1
542 2 0 1.3358770000000004 35.756299 0.23320400000000086 1 0 1
545 2 0 5.209397 31.970583 1.5643300000000073 1 0 1
546 1 0 5.515307999999998 32.153285000000004 0.5421620000000177 1 0 1
549 1 0 6.733048999999999 31.489472000000003 0.0694740000000126 1 0 1
551 3 0 0.6532360000000004 30.850721000000007 1.0168780000000186 2 0 1
560 1 0 0.752845000000001 37.30613 8.407551 2 0 0
561 2 0 0.8898810000000016 36.240578 8.318714 2 0 0
568 2 0 0.35437199999999874 37.236806 10.543029 2 0 0
577 1 0 3.608402000000001 37.031806 10.492234000000002 1 0 0
578 1 0 3.783695999999999 37.30213 12.957145000000002 1 0 0
579 2 0 3.1450080000000002 36.517494000000006 9.598589000000002 1 0 0
580 2 0 3.5262439999999984 37.063861 13.987814000000002 1 0 0
581 1 0 3.095382999999998 36.655483 11.832913 1 0 0
582 3 0 2.179535000000001 35.711782 11.942742 1 0 0
583 2 0 1.0534790000000003 33.371372 12.862266 1 0 0
584 1 0 1.4778769999999999 35.522969 13.099203000000003 1 0 0
585 1 0 0.8173899999999997 34.296504000000006 13.487373 1 0 0
587 1 0 1.1168050000000007 36.65175 13.872922000000006 1 0 0
588 1 0 6.778641999999999 34.061749 14.534458000000006 0 0 0
589 2 0 6.351344 33.070114 14.735401000000005 0 0 0
590 1 0 0.10797699999999928 36.490677 14.920434 1 0 0
591 1 0 6.421102 35.18825600000001 15.356367 0 0 0
594 1 0 5.41192 35.401333 16.510245 0 0 0
595 4 0 5.470201 36.930955000000004 16.874921 0 0 0
596 3 0 4.760357 34.559961 17.065126 0 0 0
597 2 0 2.922446 36.246404 18.006851 0 0 0
599 1 0 3.328042 37.238658 18.303223 0 0 0
686 2 0 6.894183000000001 37.112234 1.6435170000000026 1 0 1
688 1 0 0.5215409999999987 37.40841 3.756291000000018 2 0 1
690 2 0 1.4833159999999996 36.89352100000001 3.6278290000000077 2 0 1
207 2 0 3.9369290000000006 23.183262000000006 21.041981000000003 1 0 0
209 1 0 4.576220999999997 22.301099 21.184863000000007 1 0 0
210 1 0 4.419006 21.183655 20.308751000000004 1 0 0
211 2 0 5.682039 23.20776400000001 22.863464 1 0 0
212 2 0 1.6945619999999983 19.365896000000006 22.665458 2 0 0
213 2 0 2.0435480000000004 22.428213000000007 24.12999200000001 2 0 0
214 1 0 5.542087 22.304147000000004 22.236511 1 0 0
215 1 0 5.207034999999998 20.008422 20.507792 1 0 0
217 1 0 1.2924249999999984 19.669377 23.672702000000008 2 0 0
218 1 0 6.352708000000002 21.138784 22.446379000000007 1 0 0
219 1 0 1.4371979999999989 22.194176 23.262447000000005 2 0 0
220 2 0 2.150805999999998 19.744881 24.383739 2 0 0
221 1 0 6.101018 19.972165 21.621314000000005 1 0 0
222 2 0 2.259257 21.880456 22.642885 2 0 0
223 2 0 0.667526000000001 18.876205000000006 24.037755 2 0 0
224 2 0 0.9618869999999995 23.015685 22.740781000000002 2 0 0
225 1 0 0.4379859999999989 21.028727000000007 23.553341000000007 2 0 0
226 2 0 6.754285 19.09333500000001 21.779468000000005 1 0 0
227 1 0 6.622945999999999 21.154057 24.871194 1 0 0
228 2 0 4.669052999999998 20.403052000000002 24.114642 1 0 0
229 2 0 1.5717769999999993 21.640468000000002 25.991695000000004 2 0 0
230 1 0 5.223824 20.766138000000012 24.99288700000001 1 0 0
231 1 0 0.4584729999999994 21.530802000000005 26.098470000000006 2 0 0
232 1 0 4.571877 20.917125 26.242722 1 0 0
233 1 0 6.685720000000001 21.694442 27.310678000000003 1 0 0
234 2 0 3.5123880000000005 20.696045 26.40446900000001 1 0 0
235 2 0 0.3333359999999991 21.973796 28.247246000000008 2 0 0
236 1 0 5.242071999999996 21.537189 27.368961000000006 1 0 0
237 3 0 4.572287 22.094239 28.418231 1 0 0
238 2 0 4.562344 19.365518 28.826593 1 0 0
239 1 0 4.169357999999999 21.432296000000008 29.52152500000001 1 0 0
240 1 0 4.2293069999999995 19.988675000000008 29.626308000000012 1 0 0
241 2 0 3.407639000000001 23.281618 30.528819 1 0 0
242 1 0 3.6298929999999996 22.19448 30.629992 1 0 0
243 1 0 3.9904739999999994 19.335684 30.85673 1 0 0
245 1 0 3.414152 21.623867 31.913142 1 0 0
246 1 0 3.6005399999999996 20.115552 32.008424 1 0 0
247 1 0 3.1824590000000006 22.134243000000005 33.32743 1 0 0
248 3 0 2.8443429999999994 23.307038 33.46976 1 0 0
249 1 0 3.665107 19.695228 33.47757800000001 1 0 0
250 4 0 3.525369999999999 21.013878 34.296629 1 0 0
252 1 0 3.848101 21.18538100000001 35.809901 1 0 0
253 2 0 5.757483 20.385883 35.567274000000005 1 0 0
254 2 0 1.8919689999999996 22.09126300000001 36.280531 1 0 0
255 1 0 5.0280510000000005 20.662966 36.385365 1 0 0
256 1 0 2.8351640000000002 21.652192 36.712108 1 0 0
257 1 0 5.303005 20.452064 37.752462 1 0 0
258 1 0 2.995181 21.390299000000006 38.099421 1 0 0
259 2 0 2.2327549999999996 21.733257000000002 38.847954 1 0 0
261 1 0 4.190708999999998 20.823608 38.603063 1 0 0
262 4 0 6.627992999999997 19.904641000000012 38.237001 1 0 0
263 1 0 0.09103399999999878 19.445693 39.674747 2 0 0
264 3 0 0.7046089999999985 19.060527 36.140372000000006 2 0 0
265 1 0 0.7612020000000014 19.158357 37.332095 2 0 0
266 2 0 4.290201000000001 20.714245 39.692266 1 0 0
340 1 0 1.3279550000000004 25.454177 20.744672 1 0 0
341 2 0 0.33029699999999973 25.373932000000003 21.193467 1 0 0
342 1 0 3.5827439999999986 26.427913000000007 20.710282000000007 1 0 0
343 1 0 2.3431330000000012 26.170426 21.42329 1 0 0
344 2 0 4.296809 27.124244000000004 21.110311 1 0 0
345 2 0 2.338715 28.775476 21.740678 1 0 0
346 3 0 2.2773480000000004 26.387053 22.714044000000012 1 0 0
347 1 0 3.0189460000000006 28.631031 22.552901000000006 1 0 0
348 1 0 3.159614999999999 27.342843000000006 23.173857 1 0 0
349 2 0 3.7524349999999993 30.664714000000004 22.397222 1 0 0
350 2 0 0.2454740000000005 29.749511 25.920822 2 0 0
351 2 0 6.006680999999997 31.51908800000001 22.555389000000012 1 0 0
352 1 0 3.8856800000000002 29.693074 22.911234000000007 1 0 0
353 1 0 4.187532 27.093728 24.133032 1 0 0
354 2 0 4.270421 26.111889 24.610001 1 0 0
355 1 0 0.1661309999999997 30.281604000000005 24.957172 2 0 0
356 1 0 4.851534999999998 29.537945 24.007045 1 0 0
357 1 0 5.596190000000001 31.82879700000001 23.507227000000004 1 0 0
358 2 0 0.6633010000000003 29.628921 24.208971 2 0 0
359 1 0 4.97853 28.202516 24.535028 1 0 0
360 2 0 4.614247 32.234538 23.206596 1 0 0
361 2 0 0.8635080000000004 31.161531 25.011755 2 0 0
362 2 0 6.160262999999998 32.710202 23.866574000000007 1 0 0
363 1 0 5.561070999999999 30.71372000000001 24.636975 1 0 0
364 2 0 5.687812999999998 28.00602900000001 25.379947 1 0 0
365 1 0 4.885783 31.30103000000001 25.819615 1 0 0
366 2 0 3.0523709999999995 30.063830000000006 25.592813 1 0 0
367 2 0 6.515184999999999 32.740508 26.284073 1 0 0
368 1 0 3.5731179999999996 30.824831 26.154877000000006 1 0 0
369 1 0 5.556132000000001 32.29542 26.66333300000001 1 0 0
370 1 0 2.9390909999999977 31.285267 27.347533000000002 1 0 0
371 1 0 4.975153 32.700446 27.844371000000006 1 0 0
372 2 0 1.9401129999999989 30.9504 27.650675 1 0 0
373 2 0 5.404919 33.453795 28.479856000000012 1 0 0
374 1 0 3.683696 32.1202 28.250192 1 0 0
375 3 0 3.1058250000000007 32.253109 29.461497000000005 1 0 0
376 2 0 5.169896999999999 30.546331 29.155591 1 0 0
377 1 0 3.817585 31.754818000000004 30.475187 1 0 0
378 1 0 4.95824 30.861895000000004 30.212861000000004 1 0 0
379 2 0 2.6049300000000004 32.811319000000005 31.973533 1 0 0
380 1 0 3.449852 32.153165 31.81698800000001 1 0 0
381 1 0 5.715074 30.341541000000007 31.261165000000005 1 0 0
382 2 0 6.550866999999999 29.654320000000002 31.05325800000001 1 0 0
383 1 0 4.1363379999999985 31.539240000000003 32.902909 1 0 0
384 1 0 5.389418 30.682305 32.647933 1 0 0
385 1 0 3.9292600000000006 31.696956 34.387122 1 0 0
386 3 0 3.0777449999999993 32.385031000000005 34.892818 1 0 0
387 1 0 5.918201999999998 30.17546 33.93236300000001 1 0 0
388 4 0 5.100212999999997 30.752611 35.083894 1 0 0
389 3 0 6.659346 29.227262 34.06934600000001 1 0 0
390 1 0 5.024204 29.97748000000001 36.326148 1 0 0
391 2 0 6.7510710000000005 28.622044000000006 36.021671 1 0 0
392 2 0 3.2357229999999992 31.043890000000008 37.106653 1 0 0
393 1 0 5.920324999999999 28.869814 36.70382500000001 1 0 0
394 1 0 3.9882020000000007 30.27724400000001 37.277806 1 0 0
395 1 0 5.992101000000001 28.269758000000003 37.985086 1 0 0
396 1 0 3.9339999999999997 29.558803 38.493762 1 0 0
397 2 0 3.087945 29.76269100000001 39.265194 1 0 0
399 1 0 4.870840999999999 28.537414 38.843611 1 0 0
400 4 0 0.2903080000000006 27.61027700000001 38.506398 2 0 0
401 1 0 0.25197100000000006 26.637169 39.709582 2 0 0
402 3 0 2.208065 27.819560000000003 36.75223600000001 2 0 0
403 1 0 1.6593589999999998 27.27747600000001 37.666779 2 0 0
405 1 0 1.4581459999999986 25.708601 39.56315000000001 2 0 0
406 1 0 2.2870329999999996 26.103079 38.349475000000005 2 0 0
409 1 0 3.4515890000000007 25.339692000000003 38.018967 2 0 0
410 2 0 3.9800309999999994 25.580362 37.113439 2 0 0
412 1 0 3.737041 24.252774 38.896707 2 0 0
414 2 0 4.616608999999997 23.656449 38.572389 2 0 0
478 1 0 0.7305320000000005 30.929794000000012 20.730601000000007 1 0 0
479 2 0 0.18353199999999986 30.50937700000001 21.581952 1 0 0
481 1 0 1.4021809999999997 32.192719 20.846957000000003 1 0 0
483 2 0 0.22352099999999903 34.423865000000006 20.478464 1 0 0
484 3 0 1.5709959999999994 32.704101 22.11708 1 0 0
485 1 0 0.2982619999999997 34.750457 21.519351000000007 1 0 0
486 1 0 1.0732349999999997 33.889321 22.415006 1 0 0
487 2 0 6.041778 36.579022 21.243058000000005 0 0 0
489 2 0 4.180857 37.344767 22.528402 0 0 0
490 1 0 6.575248 35.926977 21.975222 0 0 0
491 1 0 1.1492879999999999 34.36034500000001 23.799431000000006 1 0 0
492 2 0 1.7327889999999988 33.796683 24.501529000000005 1 0 0
494 1 0 6.673393 36.373196 23.33872600000001 0 0 0
497 1 0 0.5012710000000002 35.53156800000001 24.238322000000004 1 0 0
502 2 0 0.6066620000000004 35.940825 25.219555 1 0 0
504 2 0 4.053652 36.14007 24.887627000000002 0 0 0