LAMMPS data file via write_data, version 19 Nov 2024, timestep = 27, units = real

5160 atoms
4 atom types

0 6.908563 xlo xhi
0 300 ylo yhi
0 39.715602 zlo zhi
0 0 0 xy xz yz

Masses

1 12.0107
2 1.00794
3 15.999
4 14.0067

Atoms # charge

25 1 -0.1362343336691639 1.1542470148815538 5.64366251331841 4.9946236893470575 2 0 0
27 2 0.1574668459757637 1.1680677833008986 4.651266324343822 4.533296218850407 2 0 0
29 1 0.2672554569745435 0.3883728214282582 5.822725529297655 6.223879908509252 2 0 0
2 1 -0.1470935423099494 1.1177297807516104 12.145816245861461 3.503132789909067 2 0 0
4 2 0.1324363068441515 4.458267937448791 7.223867471906621 4.54540922470041 2 0 0
5 2 0.1051946825736203 0.6010393385575556 10.428300880599428 4.67361883472995 2 0 0
7 1 -0.1170203866133112 1.3905291702839804 10.907241445526973 4.094659751332814 2 0 0
8 1 -0.1646867046228088 3.4742166930851135 12.28306801548056 2.7231550937786464 2 0 0
10 1 -0.006825132159050822 2.6899766087446597 10.246420938743645 4.002995764878308 2 0 0
11 1 -0.3126259322418874 4.27540458182008 8.211005256445494 4.065909923831269 2 0 0
12 1 -0.1049038530461557 3.711590876266082 11.029387744933734 3.3009723037393486 2 0 0
13 2 0.1235747946197513 4.088987701666005 8.066491032631193 2.978239141193754 2 0 0
14 1 -0.2955129190891835 3.6687785004257862 9.432969475559695 6.176136735261428 2 0 0
15 2 0.1164234271194725 5.24183140102921 8.746391692140033 4.181250358044856 2 0 0
16 2 0.1116922877360855 4.727879567326209 10.63623721048631 3.2647579354851617 2 0 0
17 1 0.01454001909329346 3.0660343979017353 8.976349703542315 4.77800396421544 2 0 0
18 2 0.1365166024333534 4.4844846664633335 10.17473786287638 6.047992475779229 2 0 0
20 1 -0.008625767786458884 1.989798180879353 8.000039792462076 5.112916599091754 2 0 0
21 2 0.1197533902169704 2.5929829839901464 6.491390443156056 3.6254576106266763 2 0 0
23 1 -0.1107730601210137 1.9466101405616012 6.684224022987828 4.485868519261913 2 0 0
24 1 -0.1087567642455027 1.06085455552409 8.209964484963562 6.224434049709726 2 0 0
138 2 0.1397528146563489 3.9231092820016427 12.499381492501113 0.4361647212846691 2 0 1
165 2 0.1264275881042601 0.17199222771198636 11.561373101538672 6.347794813705195 2 0 0
1 2 0.1384442897897681 0.14233065469909562 12.620248564269955 3.645353794613153 2 0 0
3 1 0.2761575509535974 2.1125368073219484 12.786652196781422 2.6449608131324345 2 0 0
9 2 0.1397474918505987 4.300783653799986 12.875413541419116 2.320984711486616 2 0 0
131 2 0.1757597114057096 0.2744239876335038 14.919846770149158 0.037980517221672554 2 0 1
135 1 0.2644623567911333 2.080505027084434 13.71228543681278 0.41372948914648733 2 0 1
137 3 -0.5159291732407481 1.611279805923358 13.546956775111067 1.671305029953926 2 0 1
139 2 0.1516073928329605 1.6251395743265442 16.596216913262165 2.6131087759241898 2 0 0
140 1 -0.1494219315084719 2.4328328504729306 16.43403210855126 3.330531236359254 2 0 0
141 1 0.2632502962519295 3.8078082609446953 16.730590626963373 2.96070825682351 2 0 0
143 2 0.1183083530052054 1.0626351377096832 15.708910860226789 4.812803995912697 2 0 0
145 1 -0.1021331155894866 2.1117917010296723 15.914497843443247 4.594412526978038 2 0 0
146 1 -0.1351893939183632 4.824149796323716 16.51011363479372 3.985995424241375 2 0 0
147 2 0.1443216848215365 5.866228196302209 16.763021663039822 3.773198159839507 2 0 0
148 1 -0.005422293006167707 3.113941379809189 15.70560012980658 5.635409916585544 2 0 0
150 1 -0.1135345150649587 4.495512136763905 15.97525627410784 5.242396689057039 2 0 0
154 2 0.1086810673230345 5.3123483452478455 15.821293254086502 5.951278147048754 2 0 0
159 2 0.1407972448443492 1.8987303745751256 13.184801682364546 5.641676851754934 2 0 0
161 1 -0.1046853378646904 1.3482383834430376 13.34960560206585 6.578281212981422 2 0 0
269 2 0.1550854243348837 1.946650122664327 18.431331915447867 2.014464390970954 2 0 1
270 1 -0.149266288771474 2.2143332822628343 18.172827047685814 0.9923649133182278 2 0 1
273 1 0.2673212616384636 3.3669520030979374 17.357402038548898 0.7382811898831835 2 0 1
275 3 -0.4920486095396589 4.214883263885241 16.933759088458725 1.7051880661853422 2 0 1
30 3 -0.4871408726579329 0.06504632744624642 4.745129266936751 6.894403402176049 2 0 0
31 2 0.1745581648606148 1.2948028881945388 3.9933433493485055 9.117148742137987 2 0 0
32 1 0.245306859747406 6.4220441792058365 4.876766050569305 8.178238986258037 1 0 0
33 1 -0.111593259816873 0.3251503615574962 4.46303457151878 9.292077879673268 2 0 0
34 2 0.1620806785461985 4.5305725428195585 5.712337065885816 7.533862121126797 1 0 0
35 1 -0.1429063446781397 5.143039298972213 5.444938215161611 8.399625367109273 1 0 0
36 1 -0.08174914673587189 6.833294069665127 4.683975433320307 10.641106349498799 1 0 0
37 2 0.1660741640239276 0.5786881440247564 4.4077308452600725 11.472030474642953 2 0 0
38 1 -0.04852780188913468 4.659772897462774 5.691907174317856 9.736503474782113 1 0 0
39 1 -0.05678511618708832 5.542975700988235 5.280293938456321 10.885777461519984 1 0 0
42 1 0.3782275727103703 4.861308789586229 5.604323261429928 12.2255641915429 1 0 0
6 2 0.1418930030129443 4.054355553246907 8.560060374114535 6.749512217156568 2 0 0
19 2 0.1463304788591832 2.90328174795067 9.912425597587665 6.8188162510962504 2 0 0
22 2 0.1243101951766937 1.002969721607709 9.18318249004046 6.71395081723355 2 0 0
26 1 -0.1477694963867016 0.27968605819352854 7.1781667988387365 6.755097124479207 2 0 0
28 2 0.1484582057062268 6.550226140837417 7.380632802864198 7.618781506368469 1 0 0
40 1 0.3772238737286507 3.4088523455459185 6.3321919074122155 10.33451398648628 1 0 0
41 3 -0.4691291605279011 2.5277506782685015 6.795347767217089 9.681594476918754 1 0 0
43 4 -0.4481465455403595 3.524434010455256 6.297252848017805 11.903194905587744 1 0 0
45 2 0.1751026368184652 0.7381452073914733 6.822879547176904 11.82565891129214 1 0 0
46 1 0.1724243963822994 2.619347924806668 6.954899843200546 12.924321765692056 1 0 0
47 1 -0.1148653301119781 1.2442642767846046 7.244895926804137 12.697727207771338 1 0 0
163 1 -0.1501152594085337 0.37041453629119436 12.426345891888724 6.978496419371699 2 0 0
168 3 -0.5248650501756261 5.621885600067306 11.628879511611759 8.559040188738669 1 0 0
169 2 0.1591514314100919 4.760194557365244 9.476244508672806 9.899751513913646 1 0 0
170 1 0.2644137062359606 4.803173150710986 11.652598598933713 9.654149549534164 1 0 0
171 1 -0.1252110497613483 4.267176031367841 10.408350375611798 10.175933987421365 1 0 0
174 1 -0.07230878263774332 3.128247084780094 10.277407806741849 11.009176438615878 1 0 0
175 2 0.1660724349001195 2.7919504312351537 9.290974421866597 11.343264565591126 1 0 0
177 1 -0.05141953203226345 2.3837637048993585 11.439470929795544 11.406722014254772 1 0 0
180 1 0.4064819284028667 1.095922881363463 11.67691174350355 12.213464562133623 1 0 0
182 3 -0.4651390575255709 0.24646097611071996 10.872529336984387 12.437367931908126 1 0 0
142 2 0.1411344006777016 4.537374686070652 14.4384971299809 7.806948892567645 2 0 0
144 2 0.1142739661661667 0.9934579925019111 17.0489456590553 7.118808841730145 2 0 0
149 1 -0.3104832858296471 3.9900153950967643 15.390382026129885 7.996769024052138 2 0 0
151 2 0.1183413876273892 4.712203665781798 16.219312700761375 7.832410464344543 2 0 0
152 1 -0.3148720144088221 2.0492446980543444 16.97592835636742 7.457014093461657 2 0 0
153 2 0.1491756429926027 3.7191941912344277 15.444909718507803 9.072252680320586 2 0 0
155 1 0.01527063494891667 2.692804662027208 15.542077954216923 7.060415076667417 2 0 0
156 2 0.1327625287717924 2.0715393889866016 17.17355731947311 8.550416805641394 2 0 0
157 2 0.1564015241646127 2.6014608800868406 17.79939510821807 6.961008799296521 2 0 0
158 1 -0.01313537240069831 1.6718692456806037 14.509945555400313 7.391629841166141 2 0 0
160 2 0.1417822698537931 1.1779783937572126 15.420681835706382 9.362857274484684 2 0 0
162 1 -0.1034943067983624 0.9656456942250319 14.603321021675434 8.666879155023672 2 0 0
164 1 -0.1640950324586878 0.03760251245334495 13.638858515632464 9.091730708256852 2 0 0
166 2 0.1594333620074683 6.536942116664944 13.7244703578159 10.096661743702557 1 0 0
167 1 0.2636018590652426 6.543556300872613 12.528097580867271 8.238944724972482 1 0 0
172 2 0.1433316249126524 4.572663826705887 13.805430834581847 9.929495419257178 1 0 0
173 1 -0.1428915549292863 4.17064885733903 12.826649183284799 10.17048512488641 1 0 0
176 1 -0.02800363507758263 3.014146248497806 12.754975557307196 11.021208644701375 1 0 0
178 1 0.3811323112264011 2.2590376673652317 13.848357989390733 11.784822028237004 1 0 0
179 3 -0.4513765773498333 2.6250591747990124 14.979505201609971 11.806031750670714 1 0 0
181 4 -0.4394801449600077 1.0398552405429236 13.194143036206379 12.524248454997089 1 0 0
44 3 -0.4210092968194989 5.329352706541807 5.29806617893421 13.282940579740952 1 0 0
48 2 0.2373315166622117 4.129569371874672 7.1887950284625735 14.423475159396567 1 0 0
49 1 -0.1356354026967294 3.1090839853836534 7.469005555933247 14.165339622343229 1 0 0
50 1 -0.04021421704758265 0.5075385944847648 8.096883803466469 13.577695677501135 1 0 0
51 2 0.1769907577608888 6.368767599154984 8.325116370822133 13.362484904955927 0 0 0
52 1 0.1868124134381836 2.4522355875922934 8.359609302544364 15.090664114814322 1 0 0
53 1 -0.08521350847345938 1.11219864888952 8.689689630404093 14.721194111609906 1 0 0
54 3 -0.4504938268034768 5.4152088835921965 8.041903032596949 16.091768191724082 1 0 0
55 4 -0.422591494761998 3.1019315565455248 8.867302018255486 16.331811340628036 1 0 0
56 2 0.2143465579238738 0.5245695297829474 9.380454996709142 15.337755838541657 1 0 0
57 1 0.4019833393043336 4.579259632305481 8.582073408862987 16.743913100166775 1 0 0
58 3 -0.4822867230030904 1.5905035325479426 10.656557652317488 17.272728750240656 1 0 0
59 1 0.3911121564602555 2.594326360385644 10.023521056824455 17.29027496942141 1 0 0
60 1 -0.04762550298053119 4.881752314823237 9.34407721682254 18.031618691030395 1 0 0
61 1 -0.05730706224208849 3.7022539372287095 10.2469001303271 18.321427817501377 1 0 0
62 2 0.1693576798122091 6.859196553682141 8.676452954890516 18.76736498300293 1 0 0
63 1 -0.06053179053910598 6.006301381334123 9.349803399861337 18.9332646584043 1 0 0
64 1 -0.1337948890796269 3.717430102706305 11.122098722365644 19.46649459209937 1 0 0
65 2 0.1629784176658832 2.861685487430444 11.761868036078525 19.70039255123739 1 0 0
69 2 0.1662159399497999 6.755450018925046 12.266054466546361 19.045663572231096 1 0 0
71 1 -0.15946004702246 6.836055426626074 13.073000245255411 19.774342823817694 1 0 0
73 2 0.1265150589845093 1.6202839892923382 13.88322728848108 18.7619311355913 2 0 0
74 2 0.1282257296449844 2.962350360917327 15.539156619176698 18.317609729232274 2 0 0
75 2 0.1668258659719561 1.1302965676760979 17.339810613529515 19.41720398788053 2 0 0
76 1 -0.1022004783133198 0.9662271219410286 13.996651165794734 19.628531473958805 2 0 0
79 1 -0.3102146403217513 3.459463624944127 15.484042421730706 19.31368171052735 2 0 0
82 2 0.1412266059364964 4.36262229344108 16.13035276554768 19.251861117261516 2 0 0
85 2 0.148951077893417 3.8290165700161394 14.456081422005983 19.503130746720593 2 0 0
86 2 0.1366342140779799 2.8228816088226054 17.9699593541109 19.643794522413348 2 0 0
183 2 0.1764386085807011 5.347787029962314 12.544988562129562 13.690342293263734 0 0 0
184 1 0.1816215091044641 0.17388989008190292 13.879977753270364 13.557476822661211 1 0 0
185 1 -0.112692000542836 5.833562771095487 13.44249795945775 14.095919128101988 0 0 0
186 2 0.2501616220297487 1.5911760293161556 15.461932257981537 13.73247828203521 1 0 0
187 1 -0.1336630936081754 0.6521785367515825 15.093189615877433 14.138853410946965 1 0 0
188 1 -0.07828589291401475 5.20960327825277 14.16771196338739 15.155197323053498 0 0 0
189 2 0.1354692252592587 4.262544794002136 13.808236593981103 15.572670684226644 0 0 0
190 1 0.1788842236220609 0.09817546565524066 15.89930906178311 15.178682466563016 1 0 0
191 1 -0.1140091783682821 5.777525458250876 15.364148856115307 15.687310335306256 0 0 0
192 3 -0.4013032351178917 2.973389933070304 17.206658305933985 14.322389223672712 1 0 0
193 4 -0.4202149835891009 0.8088286071785709 17.15672353745363 15.609788732565013 1 0 0
194 2 0.166933890865865 5.242617702866584 15.887206553172337 16.486427155872743 0 0 0
195 1 0.3890461352547983 2.309690982291165 17.54375664112201 15.245604917005776 1 0 0
196 3 -0.5271543702287463 6.5084031255901635 17.670554908100257 17.650239917663118 0 0 0
197 1 0.3927325308869611 0.528874598882979 17.875555695615837 16.927344272652952 1 0 0
198 1 -0.04349460677809161 2.846830172649898 18.484270846491327 16.321725090945147 1 0 0
66 1 -0.1565485977030335 5.992233472917934 10.273029297428284 20.015066162117947 1 0 0
67 1 0.2415944862133036 4.898551958249585 11.17690118141943 20.255068029009827 1 0 0
68 2 0.1548900140589256 6.857964611856729 10.308472941683258 20.681377277114983 1 0 0
70 3 -0.4969109210065962 4.944362783087535 12.26264903163938 21.115645140185947 1 0 0
72 1 0.2622746869213193 5.891370898334575 13.15092507565751 20.883703819363422 1 0 0
77 1 -0.1253034432915878 6.0633813478067 14.274665423913 21.799401847018316 1 0 0
78 2 0.1765054635121499 5.352485064839752 14.41471526886327 22.62047343559661 1 0 0
80 1 -0.01234875674550682 1.253510377914378 15.041906453983863 20.608921216818484 2 0 0
81 1 -0.3126691944044994 2.000607393797372 17.382240385053453 20.102305173098472 2 0 0
83 1 -0.1084218691564248 0.2523921399152891 15.131871578544612 21.66716648468922 2 0 0
84 2 0.1155241148606099 1.665284829055332 17.922574245801812 21.003931251815438 2 0 0
87 1 0.02040951722631189 2.4989904853126013 15.94024761324065 20.484767908422878 2 0 0
88 2 0.1348541279131525 0.35907601736767875 15.906884794162563 22.42701689447501 2 0 0
89 1 -0.01133533113110318 3.337141906742936 16.108618050373703 21.726419946428663 2 0 0
90 2 0.147331741635223 2.212861965578884 14.653268502651684 22.909896765023294 2 0 0
91 2 0.1154428907591787 4.813091249865011 17.592326565259008 20.9966317408219 2 0 0
92 1 -0.1045585012189735 3.003896629591581 15.39993622546341 22.948726777034526 2 0 0
93 1 -0.1181140191780187 4.458477773803272 17.022970604367796 21.855153214254504 2 0 0
94 1 -0.1609951130543038 3.625819016142217 15.666509960887518 24.19303581268569 2 0 0
95 1 -0.1555051836632639 5.137706783984087 17.215966790878944 23.079711184956423 2 0 0
96 2 0.1434758429971675 3.245488407618877 15.159191920620964 25.078796332488427 2 0 0
97 2 0.1246865173249126 5.970629698284596 17.908713311977376 23.112418060202256 2 0 0
98 1 0.2415128419618943 4.790891517191431 16.51529369753522 24.304137696065382 2 0 0
99 3 -0.5155293582628858 5.762727166834623 16.378364346798207 25.23826175989507 2 0 0
100 2 0.1546525237354019 0.4299387560131681 15.105686232661071 26.979498868955144 3 0 0
101 1 0.2692846814130025 5.47586108415563 16.21782177031764 26.535606698339507 2 0 0
102 1 -0.1324463728494376 6.40433177561159 15.486862101514877 27.393855669744507 2 0 0
103 2 0.1549542518676082 3.578618706716769 17.37598208661866 26.495180720398512 2 0 0
104 1 -0.1489049963590148 4.266581470376134 16.76614276043692 27.09042534285347 2 0 0
105 1 -0.07661385633442747 6.152316098064019 15.201703530960677 28.746258875396645 2 0 0
106 2 0.1655626673562212 6.874533468005418 14.637111317690133 29.349551306367655 2 0 0
107 1 -0.05397013679547533 3.9663441742729613 16.473719494798097 28.44891937623228 2 0 0
108 1 -0.05413465951521595 4.898291245456952 15.633829724310596 29.31222514429851 2 0 0
109 1 0.3800008146623481 2.729808682566984 16.885882685154826 29.260240733881897 2 0 0
110 3 -0.4774706672649957 1.9019706031336672 17.6625177727387 28.896276502751846 2 0 0
111 1 0.3737758645151482 4.273800159516472 15.376828827460574 30.67031090762109 2 0 0
112 4 -0.4561835666173318 2.8604140784733256 16.155796351504527 30.629188681210255 2 0 0
113 3 -0.4193619823369439 4.754508552511332 14.70648317699672 31.523376033262252 2 0 0
114 1 0.1883461102586912 1.9129313490731537 16.34380859511629 31.745472163457762 2 0 0
115 2 0.2523143545182275 3.090210287044025 15.197667405140315 33.136556204597426 2 0 0
116 2 0.18526492830903 0.4522365260186623 17.58181401663858 30.64231573015851 2 0 0
117 1 -0.1180218261447737 2.153146287596307 15.754749671497335 33.03543860890176 2 0 0
118 1 -0.1202630051452778 0.6965480198509175 17.096014146642244 31.593589238263558 2 0 0
120 1 -0.06500795921671559 6.681391310087298 17.172684912351716 32.66795961208634 1 0 0
121 2 0.1725661929892286 5.750491972514753 17.717558693219406 32.53136023326387 1 0 0
244 2 0.1575373238503805 4.113956981073495 18.253519995326105 30.95106391295296 1 0 0
119 1 0.2034758162530159 1.2796831516897478 15.858120096683786 34.16818837822872 2 0 0
122 3 -0.4516238860959335 6.593090241459537 15.996923935262265 36.96258787966215 1 0 0
123 1 -0.07518930615913222 0.04159672086898303 16.525968742033168 33.91294983710599 2 0 0
124 4 -0.4066668134982288 1.6670123193351831 15.432679186609516 35.547302711830135 2 0 0
125 1 0.3994156624875653 0.7442033426772376 15.47946776796243 36.832314623525825 2 0 0
126 3 -0.4088467648456147 3.597550957359428 13.96406214961617 35.09841326389878 2 0 0
127 1 0.3910279042019461 2.837062743417585 14.460150493614048 35.87050215272637 2 0 0
128 2 0.2295689286723085 6.192650961374901 16.563363052689432 34.700498303392926 1 0 0
129 1 -0.05443235685087014 1.474427780718497 14.702295093436248 37.938519986705145 2 0 0
130 1 -0.04998061264446354 2.7340984169276275 14.097469147654376 37.35250666122208 2 0 0
132 1 -0.1222835945353016 1.1877243161962734 14.499164464267137 39.31882752367362 2 0 0
133 1 -0.07551354157664386 3.607772226373013 13.31333618697422 38.18730415042361 2 0 0
134 2 0.1586303787974802 4.512774698935571 12.882191571314403 37.74142954335581 2 0 0
136 1 -0.1601552793263729 3.2681483205374926 13.12027936768446 39.542799117564364 2 0 0
251 3 -0.444852002981364 3.9907335315249375 18.64834659452163 33.92832277952612 1 0 0
267 1 -0.04438487393710163 1.3989779200318468 18.6712860498203 39.63687528943186 2 0 0
268 1 -0.03620572429078212 1.7893478146211594 18.44254386353728 38.20286626743203 2 0 0
271 1 -0.05782295268187813 2.978521080418819 17.65748856568316 37.975670636311094 2 0 0
272 2 0.1967315981318418 3.3290257901789033 17.458942463060822 36.95736647058163 2 0 0
274 1 -0.1200386192161983 3.704951235477182 17.119171549572645 39.05920736282047 2 0 0
276 2 0.1924491795857517 4.5853008734874185 16.51207941193827 38.83342129016566 2 0 0
260 3 -0.4552340680294536 6.418682165016135 19.73593739658522 0.9761047252397921 1 0 1
278 1 -0.1482274942694494 3.245660425424093 24.81728351493091 3.070527191973027 2 0 0
279 1 0.2676767716058603 3.568201175465616 23.476391162715675 2.613628444180988 2 0 0
284 1 -0.1316560735884224 3.394181262548096 22.36971344664006 3.534604503983401 2 0 0
285 2 0.1578883438316732 3.714250879644547 21.358669099387637 3.264577250821588 2 0 0
286 1 -0.007723879282378235 2.2006469988131268 23.897928676721243 5.126633513784623 2 0 0
288 1 -0.1025631301888402 2.6773037648953117 22.576797242970343 4.729575735702087 2 0 0
292 2 0.1493761382784687 2.464437945347847 21.709445114398875 5.356095301377485 2 0 0
293 1 0.02017029566535671 1.3961362736471827 23.951559902547245 6.376957263214839 2 0 0
296 1 -0.01650564381999951 0.2898509006003465 22.885227700741286 6.488843912057383 2 0 0
297 2 0.1475260279420519 0.16060830118305516 22.205365070193466 4.404894113823344 2 0 0
299 1 -0.0992783079652283 6.672633448764607 22.047741787430855 5.410775151742283 1 0 0
301 1 -0.1449140296578406 5.705599243083479 21.05854507447885 5.617069125251247 1 0 0
303 2 0.1503592596244307 5.379471771056728 20.45712178225279 4.766919734364343 1 0 0
407 2 0.1744980431761335 1.3363707902155408 24.446412535216055 1.6859118738089591 2 0 1
408 1 -0.146137353119056 1.9064801787653258 24.67338364220218 0.7747957519888969 2 0 1
411 1 0.2437296509919525 3.1244536955151796 23.9873903949613 0.43664375962680674 2 0 1
413 3 -0.4993759664753529 3.764637513804789 23.188674725565317 1.3154663764930266 2 0 1
277 2 0.1623408572733192 3.4572138728900006 25.667742208337557 2.4142274874218868 2 0 0
281 2 0.1214863106313304 2.3680903270489972 26.050232259641444 4.617122928172842 2 0 0
283 1 -0.110841483878403 2.60397544161495 25.02745616779007 4.306286442782214 2 0 0
294 2 0.134753815804168 0.2867765044062512 25.80388669818444 5.733269358063227 2 0 0
398 3 -0.4684133737540565 6.437651556983936 26.640785035327823 0.9444544374325393 1 0 1
404 2 0.1855517422018072 4.75870267271015 27.98500818349856 0.06461052806332518 1 0 1
422 1 -0.1344056853295094 1.2185647305019567 30.786825910211594 3.2366549972858616 2 0 0
423 2 0.1506377850503184 1.7228033050407052 29.822930364413804 3.08302074629293 2 0 0
426 1 -0.1083445732194032 0.8122285895680129 31.211834967320446 4.517007249962817 2 0 0
430 2 0.1380703827044392 0.985095509672111 30.55699685929326 5.372195280712034 2 0 0
435 2 0.1377497261998223 5.073306429521051 31.052175522025014 4.520573920347133 1 0 0
437 1 -0.1075269707527351 4.980036313341094 30.820116960608523 5.586659894871049 1 0 0
439 1 -0.141053784518506 4.183198080003522 29.731688900650976 5.9831341864599015 1 0 0
441 2 0.1401469939801212 3.6658226970044283 29.13319824120359 5.231127208285132 1 0 0
551 3 -0.4993400101471561 0.6543801525046706 30.910221874634534 0.9629100069250058 2 0 1
415 2 0.1591306074505826 0.14865992059054411 33.625724024346944 1.4709680099976719 2 0 0
416 1 -0.1417203637547847 0.3138906997069889 32.94764877216338 2.312198463467172 2 0 0
417 1 0.2700093361226186 0.8056803673643326 31.588615822945698 2.0980764285958475 2 0 0
418 2 0.1314736829440497 1.3583990052866632 33.98793136554035 6.61864698615836 2 0 0
419 2 0.1278367658716151 6.495681139595962 34.40244163006656 3.7434412400313546 1 0 0
421 1 -0.1072693247798833 6.8971896760770415 33.39324350733728 3.601158426172702 1 0 0
424 1 -0.008026336838542132 0.12529635298348313 32.47805183956191 4.727883675022993 2 0 0
428 1 -0.3119007744065769 5.392427687264466 34.002906139640125 5.930967920100632 1 0 0
431 1 0.01399083034806721 6.43807003809191 32.78632688850434 6.060321467359457 1 0 0
432 2 0.1332264985524383 5.894232987124494 34.95567261338372 5.656954455559502 1 0 0
433 2 0.1379006643090971 4.628234577887735 33.77039143563173 5.1551101965798996 1 0 0
434 1 -0.008966252795389637 5.674412375646307 31.620745080265134 6.588198459516199 1 0 0
536 3 -0.469813496937701 2.9689189163135525 33.92586962643225 0.8744931546618017 1 0 1
542 2 0.1695533706765111 1.3612665343615467 35.76170879618826 0.2534505488188789 1 0 1
545 2 0.163543378715123 5.178158240063981 31.989488289143388 1.548959910859327 1 0 1
546 1 -0.1499682927952883 5.516377506490396 32.130033379909065 0.5173432032157631 1 0 1
549 1 0.2535903333285622 6.711092321123819 31.485165765069297 0.06525366836218717 1 0 1
686 2 0.1332337588835797 6.883020388116909 37.122021760377486 1.671700846885835 1 0 1
688 1 -0.1242297285274045 0.5556307366626725 37.382479597557534 3.7531284001506022 2 0 1
690 2 0.1763699214051 1.5138035269259638 36.88874691127954 3.6117821281698888 2 0 1
280 2 0.1330565183910197 3.3342963538772454 24.33104858545004 7.450229542988951 2 0 0
287 1 -0.306332488318023 2.4296833762341374 23.69552252903202 7.5685344124297655 2 0 0
289 2 0.1325994830974991 1.973677802622486 23.895774822091287 8.556673561453302 2 0 0
291 2 0.1553519830730624 2.7526330824377694 22.63440630414837 7.594870596029836 2 0 0
298 2 0.1364859138530514 0.038226825339374555 23.237565312876793 8.672240424518119 2 0 0
300 1 -0.1082048547729113 6.626291694312108 22.64132903254302 7.814982870006796 1 0 0
302 1 -0.1544385818379718 5.686477573798799 21.640388536422172 8.040044206963497 1 0 0
304 2 0.1798501096339018 5.342066538771379 21.506458601474574 9.061872560603671 1 0 0
305 1 0.2511319608992377 5.126730599680445 20.838202198737427 6.939512558516213 1 0 0
306 3 -0.5279365342831827 4.014969736120463 20.16016217734729 7.141577195955627 1 0 0
307 2 0.1378225611261599 5.720477809163831 19.179538390629567 9.003852071672354 1 0 0
308 1 0.2203013789262959 3.7356929769435325 19.985722111499268 8.491291049153569 1 0 0
309 1 -0.16650989997826 4.771961855764055 19.55558700998968 9.403743799312116 1 0 0
310 2 0.152630080150967 1.6579924626924758 20.652588935760996 8.348344722126393 1 0 0
311 1 -0.1467889497162477 2.489705997458909 20.419936258377543 9.018369110009965 1 0 0
312 1 -0.05555393081587062 4.645458473365779 19.655379271968762 10.821338142080696 1 0 0
313 2 0.1828102652004441 5.454308816088059 19.31725467795585 11.474970481853436 1 0 0
314 1 -0.04641579179547632 2.3338928926714915 20.59913697043533 10.441821089453342 1 0 0
315 1 -0.04905461232940019 3.4311278960059735 20.185660871519723 11.390072169275058 1 0 0
316 1 0.3979466500003182 1.15360995800688 21.06591169349637 11.290146046619594 1 0 0
317 3 -0.5173387207306458 0.17159559140126535 21.536290351822693 10.808504922356752 1 0 0
318 1 0.4106749713799133 2.9540766562275507 20.314791558107398 12.839114670543612 1 0 0
319 4 -0.4163662237953857 1.4766446632041017 20.84438974394048 12.807343649817868 1 0 0
321 2 0.1967304668318655 6.038224886142045 22.237578568416634 12.603973137466316 0 0 0
282 2 0.1386325409571871 1.4539953190650305 26.044414308188692 7.111458802517029 2 0 0
290 1 -0.3094064995516042 0.7222253342421647 25.34944568212578 6.652589790694024 2 0 0
295 2 0.1226030834022626 6.779886110615765 25.254945135914397 7.365518404499681 1 0 0
440 1 -0.1557024229144345 4.750866773099656 30.169197398519053 8.392534267959691 1 0 0
442 2 0.1741858754636044 4.6682199896025205 29.935773198366242 9.4595185083865 1 0 0
443 1 0.2592801642578785 4.023945016187999 29.399708130947765 7.394487006004582 1 0 0
444 3 -0.5319130963504487 3.023500486446005 28.539804272308462 7.591214650849173 1 0 0
445 2 0.1398340476941667 4.895557406716397 27.196671709682107 9.055763074100618 1 0 0
446 1 0.2448575964353596 2.827269048523694 27.92897199270397 8.791304913077367 1 0 0
447 1 -0.1523779698283865 3.8995738372216957 27.25969040864007 9.499870904811484 1 0 0
448 2 0.1601293634586003 0.7033888032400847 28.457488331273513 8.697664076827811 1 0 0
449 1 -0.1364552313457166 1.4883346997675706 27.982679093103123 9.294738128922075 1 0 0
450 1 -0.06912887035182558 3.6644429723615253 26.68147252966235 10.764614242693176 1 0 0
451 2 0.1536823206476939 4.465228351505359 26.1774853273584 11.311577479142159 1 0 0
452 1 -0.04782669223384393 1.2298691072268946 27.497676837638313 10.616596592037856 1 0 0
453 1 -0.06134593754378329 2.3490928401950417 26.786023390048086 11.347350887452148 1 0 0
454 1 0.3804118277425743 0.04940712177516492 27.57348992240584 11.589279387308956 1 0 0
455 3 -0.4571812837263334 6.099714661459847 28.396295973057057 11.508317893797374 0 0 0
456 1 0.3869133985400534 1.826251972318765 26.273642149405262 12.689300294380843 1 0 0
457 4 -0.4291762368202035 0.33673269151532204 26.68250588784371 12.831123038150945 1 0 0
420 2 0.1247327131719375 4.829146712889711 34.18009857989066 6.874115095241074 1 0 0
425 1 -0.3120944068309267 0.711223515560466 33.19802286642236 7.06162128964218 2 0 0
427 2 0.1176755662940434 0.3267690000306069 33.566199460013856 8.03835056485345 2 0 0
429 2 0.1392949063167092 1.3586516578452628 32.316099033586646 7.257930888198092 2 0 0
436 2 0.1253406549013176 6.051848219142455 31.842297911928814 8.762868219408384 1 0 0
438 1 -0.1095922213394578 5.540952961388762 31.258789682128192 7.99240099170147 1 0 0
560 1 -0.1512885531391563 0.7627558194477201 37.308684228443 8.410065385816818 2 0 0
561 2 0.1319651897739254 0.9242123802014955 36.2309316561869 8.317972277906152 2 0 0
568 2 0.1527678868752337 0.35156969656889375 37.2293582929599 10.543704583787973 2 0 0
577 1 -0.1414949759301915 3.585587870939105 37.00011614519817 10.49942674276125 1 0 0
578 1 -0.1580026489476019 3.7682838133724763 37.2982102542979 12.95566226606324 1 0 0
579 2 0.1438780865712947 3.1494055175398366 36.5289072894002 9.617618974849979 1 0 0
581 1 0.2572040014887341 3.1060186018592435 36.63830715101653 11.8329276785472 1 0 0
582 3 -0.5231888261085222 2.1870807409783293 35.68278416538283 11.959867873009545 1 0 0
583 2 0.1591434839926212 1.0607554933207866 33.39180829966842 12.87318220128416 1 0 0
584 1 0.2564453312801281 1.4661944869166301 35.52224362922631 13.106254384976323 1 0 0
199 1 -0.07418260384964229 1.7258476998466314 18.77412613005343 17.29025652752223 1 0 0
200 2 0.2054794998136844 4.956885059452453 18.91777808334712 15.813372157967967 1 0 0
201 1 -0.03854389930353146 4.1301270329804876 19.124899580281234 16.502248720958836 1 0 0
202 1 -0.1386504523905187 1.9333755704089857 19.767740639609926 18.299625452042 1 0 0
203 2 0.1677649723338185 1.116974996372764 20.03832382287723 18.97385116440406 1 0 0
204 1 -0.1478792527790524 4.31074282535015 20.03925536640141 17.55998858137275 1 0 0
205 1 0.2513874725974903 3.2236505319278694 20.367102048579966 18.458250563103206 1 0 0
206 2 0.177567200116391 5.284841629506533 20.526681171937337 17.681587674157107 1 0 0
208 3 -0.4911631443733979 3.3668914114840507 21.27849305899016 19.46125488053557 1 0 0
216 2 0.1374087465047525 5.111311675758268 19.156576915616526 19.83664488584947 1 0 0
320 3 -0.4313123579088912 3.6457164761818244 20.081283523568036 13.77847273287927 1 0 0
322 1 0.1867146156668559 0.8653114100207746 21.714275784974674 13.850833962265005 1 0 0
323 1 -0.103584492742132 6.545707931464982 22.394527092490517 13.55773873857983 0 0 0
324 2 0.2114595706666649 2.3813629537000764 21.504350599289108 15.39625900353542 1 0 0
325 1 -0.1333470698645989 1.4406495523485623 22.007946437395685 15.138861729428909 1 0 0
326 1 -0.07318930210121762 5.927142298958291 23.27073082673053 14.492432529571312 0 0 0
327 2 0.1798275691548762 4.9748215689852895 23.75748760852609 14.256785004202593 0 0 0
328 1 0.1783917245733785 0.8990562450496176 22.913461677773334 16.0948580689927 1 0 0
329 1 -0.09475525607391655 6.566113042953 23.49497261043604 15.750222796091988 0 0 0
330 3 -0.4428873076650158 3.4515290476154616 24.676508142772438 16.50200300679597 1 0 0