LAMMPS data file via write_data, version 2 Aug 2023, timestep = 500000, units = real

276 atoms
4 atom types

2.239249991146939 13.130247008853381 xlo xhi
2.239249991146939 13.130247008853381 ylo yhi
6.577541091541301 38.568600908452346 zlo zhi
0 0 0 xy xz yz

Masses

1 12.0107
2 1.00794
3 15.999
4 14

Atoms # charge

5 2 0.1521154430238414 8.849694198472994 8.186584641831864 9.88102241127568 0 0 0
7 1 -0.1045373471512894 9.308958347046334 7.887024265732589 8.926480867679953 0 0 0
20 1 -0.01334919329487967 10.668317389360567 9.423944913540904 10.896715494783049 0 0 0
24 1 -0.1202812627809337 9.556462699225648 10.392184009797113 10.880185175527966 0 0 0
153 2 0.1132694610661801 5.228388908122842 12.856229530020752 9.751954386168718 1 0 0
10 1 -0.022086953936681 10.68947664308229 8.31611474961526 8.730981834647448 0 0 0
22 2 0.1243240736098297 9.271128866136962 10.899815520157762 9.97861915023442 0 0 0
15 2 0.1271030035738704 2.7208324582579158 9.103009808652596 9.047750597841489 1 0 0
17 1 0.01907588073208165 11.430747721870585 9.295141204627432 9.600676479560043 0 0 0
18 2 0.1381197651186842 10.38775559844131 10.831674929671767 8.356141641670568 0 0 0
11 1 -0.3156844927222018 12.874111296848483 8.772462171385037 9.861950398520225 0 0 0
14 1 -0.3003826446195893 11.41081465752481 10.674336885685353 8.901424689381287 0 0 0
4 2 0.1370080124334051 2.4212252762538813 9.269016916590957 10.757515450765819 1 0 0
6 2 0.1303657145834195 12.295287132117988 10.859685132616224 8.265503626111528 0 0 0
13 2 0.1331564906758126 12.850913344040833 7.702136784173401 9.987265225474061 0 0 0
19 2 0.1402829423470852 11.513008112397785 11.532140952280937 9.64388647145888 0 0 0
142 2 0.1291921249400672 3.6272552960732174 12.909545856547108 10.348275500916767 1 0 0
149 1 -0.3213938471658453 4.2169869335297046 12.863234876959467 9.404215585951691 1 0 0
155 1 0.02265601417021949 3.9525383802831 3.18965338215254 8.484367177192077 1 1 0
139 2 0.1517009788227232 10.477756471936527 4.6136853991514215 9.48091255997164 0 1 0
140 1 -0.1274433061380707 11.055000019530183 3.9985128496966995 8.773417166163306 0 1 0
143 2 0.1241876340563269 12.906711851227168 4.743659204257172 9.753517362271934 0 1 0
145 1 -0.1192360019491032 12.465263056231969 4.057825146715517 9.00970486359631 0 1 0
148 1 -0.003631860881101349 2.415613154303758 3.2339420086969763 8.125814419908748 1 1 0
158 1 -0.01543166913772209 4.6862803286183485 4.341612393135183 9.003551868733172 1 1 0
160 2 0.1408450005113819 3.7524000271156632 5.6508928298088374 7.4667602562622175 1 1 0
162 1 -0.1069403101049008 4.486448496559331 5.559231827041965 8.257152743324763 1 1 0
164 1 -0.1600486948115656 5.119376954723496 6.799926771035154 8.710096275269748 1 1 0
166 2 0.1640470971252336 4.875911763566961 7.714708075910533 8.252213776539287 1 1 0
161 1 -0.1080927534022426 5.712997193525428 4.324433939158933 10.052941398980039 1 1 0
167 1 0.2110308834881076 5.858892181620744 6.777498207033816 9.870885915057412 1 1 0
163 1 -0.143932070015829 6.2646998663375655 5.562122444046146 10.481060543873031 1 1 0
168 3 -0.5124068166493904 6.068322703022975 8.011682475355641 10.580354593682152 1 1 0
141 1 0.247298158329187 10.382197536414399 3.100068117913386 7.829110207482155 0 1 0
170 1 0.2467178630544799 5.277563407600422 8.30882487008101 11.597062211096809 1 1 0
275 3 -0.5071363093840155 9.001240551148431 2.860747579218333 7.839986906448577 0 1 1
151 2 0.1174433001138841 4.065823787407172 11.880105323804305 8.93309249797136 1 0 0
159 2 0.1208257279753017 6.092441657288186 3.4231990913739407 10.661037115234446 1 1 0
165 2 0.1740138497439923 6.937096471552041 5.526489922549828 11.326766796848752 1 1 0
169 2 0.1339348304497753 6.2425808279828905 10.322036801148524 11.646796820255066 1 1 0
2 1 -0.1581056761109209 8.61721421487937 7.012789025563899 8.070567587325371 0 0 0
1 2 0.16028181993 7.621179098819031 6.7313502207166005 8.417496234008144 0 0 0
150 1 -0.1061592525338182 12.7048142655273 2.3809712207091747 7.149649407634945 0 1 0
276 2 0.1267351801579177 6.862188126133257 12.280938023724818 8.083500463158556 0 0 1
172 2 0.1755047404360085 4.31394986924272 6.354356888908202 12.079350462755315 1 1 0
152 1 -0.3128228229341132 4.641128364415215 2.965333771777546 7.109718857597517 1 1 0
156 2 0.1549930310314861 5.684159417135506 3.123500401437406 7.284104103406362 1 1 0
146 1 -0.1611497563856853 11.273014822947989 2.3191949288301132 7.0334031626879785 0 1 0
12 1 -0.1046723622838658 11.280296600243066 7.79345235670259 7.485930055158287 0 0 0
26 1 -0.1369571609502439 8.866638817787296 10.740187698161186 12.070835929717123 0 0 0
28 2 0.1409160849081218 8.085865795033754 11.521860533591507 11.989907950628247 0 0 0
171 1 -0.1398802040123679 5.5415988325326175 9.609828185046368 12.163093692404605 1 1 0
173 1 -0.1436372903367053 4.418605278150413 7.403993006250103 12.367455831876484 1 1 0
23 1 -0.09869582604704132 10.950932156897046 8.634065455705912 12.096781012470455 0 0 0
21 2 0.1430095707995039 11.819578836319526 7.9646278144530385 12.110593066609983 0 0 0
16 2 0.1439576284638969 12.323400714667319 8.110894444764915 7.305771499361878 0 0 0
274 1 -0.166585681653122 7.223252399633551 12.306782210095825 7.048225261849247 0 0 1
273 1 0.261523677326196 8.42557103085299 2.274150583420804 6.823206740292256 0 1 1
157 2 0.1191047304493608 4.491757495828175 12.876668058634547 6.63349196956024 1 0 0
3 1 0.2638186246704633 9.228163403654907 6.491512014097118 6.8618011000316494 0 0 0
8 1 -0.1169200367586074 10.614665740135933 6.9458779738410525 6.60630888149227 0 0 0
154 2 0.1135003691563019 2.434969133504805 12.485874730238315 6.62276306782688 1 0 0
25 1 -0.119039061983808 10.137971050426714 8.823037242292036 13.22864970347967 0 0 0
29 1 0.2826845551509887 9.071050163412124 9.890722270617747 13.208274778607182 0 0 0
174 1 -0.09146731805124282 4.796830559556939 10.25314173891427 13.226963933677741 1 1 0
175 2 0.1474552891221084 4.9938716994697145 11.271594497615634 13.521517218497998 1 1 0
27 2 0.1772386448015691 10.21792935654118 8.127749137812133 14.126507078610036 0 0 0
176 1 -0.04693059263094032 3.6755665079264155 7.926317274797724 13.419366661659673 1 1 0
179 3 -0.4672973401720902 2.481892381670251 5.963066070024631 14.097902582818357 1 1 0
177 1 -0.04382036092867672 3.834879572671664 9.413372424163077 13.850302591756634 1 1 0
30 3 -0.5003895048964389 8.401979603442765 10.067066309199477 14.301203806937547 0 0 0
34 2 0.1820905157398411 7.068394718441835 7.796970926991943 13.666372370638083 0 0 0
31 2 0.1523532852157311 8.927579266977778 9.937310006100779 16.9424396352319 0 0 0
32 1 0.2271141107814253 8.125566098663922 8.974306939048349 15.151946612355733 0 0 0
33 1 -0.1455542423238619 8.428675291733335 9.035504897479754 16.564945505133302 0 0 0
35 1 -0.1246397738113418 7.345674940981905 7.8468376744083566 14.719696954460215 0 0 0
36 1 -0.08725199631616012 8.161096799911288 7.99129950795758 17.52280717743958 0 0 0
38 1 -0.02473900171630568 7.092384764521477 6.728054585755992 15.570056127235711 0 0 0
39 1 -0.0485818789891057 7.478898405528499 6.8120884805220445 17.05678217715166 0 0 0
42 1 0.3975114111495766 7.04641129262078 5.5552478675081085 17.754487082984262 0 0 0
43 4 -0.3979614983604756 6.402766592162918 4.563866133216987 16.733230915557556 0 0 0
40 1 0.4008931130395493 6.527648678633235 5.333166985943903 15.313679471955627 0 0 0
41 3 -0.4493748757342079 6.36380217036285 4.962498323160474 14.19393598718111 0 0 0
45 2 0.1925109036465608 4.330629913072971 3.773428807924846 15.04548014846672 0 0 0
46 1 0.1653259817404104 5.251918016701685 3.6421910483413713 17.002367026663784 0 0 0
47 1 -0.1169132356211116 4.2438357699325095 3.3249584116697006 16.08962254374913 0 0 0
178 1 0.387251683112297 2.619338659832852 7.151265043513324 14.19979509058497 1 1 0
183 2 0.1750268210741544 12.13933409569729 9.943869872931844 17.421675010524353 0 1 0
185 1 -0.1151792145331767 11.845732426315113 8.858469860183913 17.44043624134609 0 1 0
184 1 0.1795047311361427 12.132721728993495 7.896494081305731 16.3708185804282 0 1 0
187 1 -0.150344771608608 11.777040097406196 6.586037366150876 16.748690482654432 0 1 0
181 4 -0.4512851176498166 12.84321641202963 8.252896501969401 15.112300267298235 0 1 0
180 1 0.402918699144591 2.6961627473282634 9.592812110331817 14.824406726598015 1 1 0
182 3 -0.4640098672031263 2.5255270819601696 10.722988621627316 15.185768593962672 1 1 0
190 1 0.1757579837261178 11.292653319370803 6.019178824690308 18.01558838580517 0 1 0
186 2 0.2175774826705318 11.899181475522994 5.844079413601465 16.0123966212292 0 1 0
51 2 0.1819482907864999 2.284647298471889 2.4226232127385376 15.740739800968962 0 0 0
50 1 -0.06024255851775679 3.1127517369604636 2.5519660776042734 16.451998418052703 0 0 0
193 4 -0.4212335173693655 10.750020400377974 4.593168676057141 18.25684846151985 0 1 0
192 3 -0.3969708138935198 9.594647743322327 3.98140461254365 16.137268606586836 0 1 0
195 1 0.3992301936293882 9.871688986006003 3.7971747681897874 17.308923784439635 0 1 0
49 1 -0.151180715770953 5.056754824920708 3.031344612170451 18.31666486314093 0 0 0
53 1 -0.1099023149733284 2.98308905826576 12.864415692130144 17.775765692425207 0 -1 0
56 2 0.1883951064445985 13.036230894554137 12.296694656972043 18.059536797654502 -1 -1 0
198 1 -0.01894408589030219 9.222313199337584 2.6209976487369033 18.138632775897783 0 1 0
200 2 0.1748272342991137 7.852756881579236 12.430242555146506 16.86740778212283 0 0 0
201 1 -0.06839861574022686 8.291466092215792 12.452151789629685 17.776779248128406 0 0 0
37 2 0.1420259973469853 8.494081337273713 7.998653349749016 18.591828708211747 0 0 0
188 1 -0.111365361497606 11.390644555641334 8.407723549512738 18.699108047929037 0 1 0
191 1 -0.143607500040837 11.129709731781087 6.990791408979662 18.995416956135948 0 1 0
206 2 0.1317475693284387 7.363586189415828 10.577638236888774 18.252868758401377 0 0 0
204 1 -0.1906984279561184 7.96693085834981 11.371348765786045 18.60881117290602 0 0 0
44 3 -0.474744395221792 7.035894626712259 5.383731964376852 18.945441841704593 0 0 0
52 1 0.1710279055319987 4.009168274882607 13.079978517320193 18.748856928849534 0 -1 0
48 2 0.2248146448806325 5.912537510137936 3.124534873370401 19.012014713282703 0 0 0
199 1 -0.03638831460882311 9.78584452441886 2.6362412754649633 19.49385005883301 0 1 0
197 1 0.3914433286348339 10.688877488631686 3.875643139646174 19.638350507075238 0 1 0
216 2 0.1527796953670811 5.924105274219948 10.11109509976913 19.389766599923878 0 0 0
205 1 0.2935398638191836 8.535407891397812 11.415215881416454 19.9463334493947 0 0 0
222 2 0.1768767871238723 4.8565888115930065 5.5344192757765684 19.680555413738432 0 0 0
189 2 0.1573573532900923 11.293679634067036 9.07572604732606 19.48321732276966 0 1 0
226 2 0.1352649283423328 4.273248131312025 8.431395456867275 19.75475045434849 0 0 0
194 2 0.1538385832572651 10.644304541775718 6.780620485912829 19.931152822755323 0 1 0
220 2 0.1390513035645152 2.9350760043562323 7.033408910306288 20.057066017088744 0 0 0
54 3 -0.5034479505971484 12.976500997224875 10.903015538348882 20.177714130642453 -1 -1 0
55 4 -0.4489983925399298 4.058745801925828 12.372946520734192 20.08461066234146 0 -1 0
215 1 -0.1448231728706222 6.179962671200494 9.482270718111314 20.211007131527815 0 0 0
221 1 -0.09614818603870767 5.198980114346651 8.471132308543279 20.336311117638033 0 0 0
212 2 0.1409764157161356 2.710404203150153 7.73605070058551 21.743284267721187 0 0 0
196 3 -0.4520231086992204 11.434271322234345 4.076792242276102 20.587707801956533 0 1 0
224 2 0.2049210282597576 5.913064675844622 4.972125763841408 21.070158805498274 0 0 0
213 2 0.1604224712161614 4.210477455206147 4.29546474579602 20.81040937706033 0 0 0
223 2 0.1643172831265567 12.949701958529133 6.05601326705732 21.433768730926644 -1 0 0
202 1 -0.0907996120753265 9.469321794060658 12.412260077713327 20.37300857581956 0 0 0
203 2 0.1934740357691275 9.873294822514422 12.48380460505873 21.360519280915295 0 0 0
208 3 -0.5062708171364553 8.354842534811848 10.60432027580661 20.9614041114682 0 0 0
57 1 0.4159933146060862 2.9186787634798743 11.51177309274247 20.74477450294071 0 -1 0
59 1 0.3834539591335016 5.071273018646828 12.586861350642081 21.23946072480983 0 -1 0
60 1 -0.0575433259821836 3.22013591725384 11.292931845425137 22.214518492603965 0 -1 0
61 1 -0.040138808817163 4.57653017510213 11.85202796404102 22.46001170523173 0 -1 0
64 1 -0.1260281562349792 5.2383773440874 11.54776377438536 23.743539203144906 0 -1 0
58 3 -0.4493974765681669 6.095646618340863 2.3275933066307775 21.256165286940288 0 0 0
65 2 0.1869300352083818 6.292821307936558 11.794375023071897 23.866442936050603 0 -1 0
63 1 -0.0973092233336865 2.617844151805684 10.417102562115303 23.262517875944056 0 -1 0
228 2 0.1537415947895134 4.552064295115372 7.966648262223276 23.96790470778894 0 0 0
62 2 0.1249258781518394 12.543213051181425 9.946319329704021 23.014586603042012 -1 -1 0
207 2 0.1484796221027297 8.504069402279983 8.679376107614118 22.629196381884277 0 0 0
209 1 -0.1218331935343963 7.529908514369746 8.665205936855461 22.05631397144694 0 0 0
214 1 -0.09580945536480008 6.554576096393848 7.658821727336534 22.212105440089964 0 0 0
210 1 0.2420018199839613 7.412692872184794 9.58403839119152 20.97602377155465 0 0 0
218 1 -0.004428795809354554 5.335774838288918 7.516852814681272 21.407105568681146 0 0 0
211 2 0.1374917722395224 6.653577505984597 6.838396185382552 22.960897392809997 0 0 0
225 1 -0.0034245249908441 4.348796182549652 6.360765612314794 21.715960095827228 0 0 0
217 1 -0.3008294794421245 2.912415041530502 6.837324028352506 21.146777469413745 0 0 0
219 1 -0.2793368598682771 4.87519233807469 5.197815833135325 20.742242146814746 0 0 0
230 1 -0.1088495212890459 4.272100363524787 6.905169699557917 24.137033000016068 0 0 0
227 1 -0.01175049022035054 4.233466777148639 5.901175132166346 23.08759294458803 0 0 0
232 1 -0.1518839189014666 3.9093007777954214 6.498604541661465 25.444000598015712 0 0 0
231 1 -0.1008293933884964 3.72189344714339 4.5792433914773305 23.465540942566008 0 0 0
229 2 0.1505515897750457 3.5612214562570372 3.9038603007513526 22.675914861146424 0 0 0
233 1 -0.124510525922902 3.529828598675323 4.1408948715888645 24.78955219842434 0 0 0
66 1 -0.1614094433876666 3.2490816420207818 10.245751128353398 24.51604403578878 0 -1 0
67 1 0.2435140133443456 4.620034869189668 10.71014845428033 24.700588995790397 0 -1 0
235 2 0.1457832611528444 3.2706785345550013 3.05482285363654 25.105765410292854 0 0 0
68 2 0.1252880402763124 2.662035925173417 9.588518601154622 25.2002405335056 0 -1 0
70 3 -0.5104199731446878 5.381320202507788 10.230151841490024 25.738349963254137 0 -1 0
236 1 0.2252060995300062 3.60420343136781 5.132837211871292 25.80005003106899 0 0 0
234 2 0.143759992692947 3.8426757693387676 7.309911275005668 26.214445815155614 0 0 0
78 2 0.1440622561783301 4.305772536361617 12.70676029945552 26.632644916041535 0 -1 0
241 2 0.1602764591789358 5.488549572975279 5.635616751882729 27.173006480967032 0 0 0
237 3 -0.4915874776503319 2.952699266912189 4.821272437418104 26.995347028832136 0 0 0
69 2 0.1806754086736516 6.18784979034832 8.898714142286599 27.766814790475756 0 -1 0
96 2 0.1443403438727379 10.858228001770861 12.291772498099082 28.393934435808745 -1 -1 0
72 1 0.2597006892922705 5.249707850383276 10.694308717070214 26.971252938312304 0 -1 0
71 1 -0.1349197808048401 5.628346798117015 9.761066374561736 28.085136930989982 0 -1 0
77 1 -0.1598173195459142 4.5532694321365375 11.93181055722378 27.34909240377842 0 -1 0
90 2 0.1319168555705923 13.001062570717902 11.156043196294334 28.81234709904294 -1 -1 0
83 1 -0.1098649123851551 4.158516936647575 12.137341792982564 28.6633087498355 0 -1 0
88 2 0.1525897461156989 3.6708851459647303 13.021025888616265 28.92780255424971 0 -1 0
76 1 -0.1049113347089797 5.2291301578290375 10.003109543001006 29.367921949150123 0 -1 0
73 2 0.1508661033170677 5.5265076231272285 9.304576554822095 30.1396367847044 0 -1 0
80 1 -0.02010109433298191 4.33701095055431 11.121724810332164 29.681726664615475 0 -1 0
92 1 -0.1095648043086758 12.582051678712272 11.806325724373174 29.59944395819737 -1 -1 0
94 1 -0.1532720403248891 11.283650205786522 12.413163520739442 29.4132281905963 -1 -1 0
239 1 0.2585372027189368 3.4753339574381057 5.40866039608074 28.044693080728344 0 0 0
238 2 0.1606746799901333 12.392455847125518 5.62174257240832 29.243630432052576 -1 0 0
240 1 -0.1278533557505703 2.6337889584848324 5.693159379448624 29.22549554155868 0 0 0
245 1 -0.05411830587338827 5.554758692437048 6.1855517087568845 29.270147827385472 0 0 0
242 1 -0.1467831836967156 4.927556294848495 5.670707642867296 28.098569157873968 0 0 0
87 1 0.007469080345999739 3.7571162442200494 11.45014175895405 31.06587323540809 0 -1 0
89 1 -0.008749951069579535 2.423318236785181 12.056581626528228 30.816016729554114 0 -1 0
98 1 0.2338294693875639 10.669148331483544 2.2840295722649335 30.428106968865997 -1 0 0
248 3 -0.4706960388922199 7.809449115908645 7.1221555047064316 28.850899770254294 0 0 0
247 1 0.4000970215019681 6.948438724118591 6.779453745549985 29.593770255250696 0 0 0
243 1 -0.0926955534716196 3.219379917029964 6.0927370031121 30.430517459096478 0 0 0
246 1 -0.06597981877785714 4.666756816394319 6.319166105931609 30.477329187066353 0 0 0
254 2 0.1976926222859296 8.766358424542425 8.909666321245698 29.471854962111557 0 0 0
250 4 -0.4153584668996029 6.845231076188019 7.47286900769161 30.947619011132275 0 0 0
256 1 -0.09122741793822259 8.4633714116443 9.373775492044887 30.486156193637534 0 0 0
259 2 0.1521628045725709 9.643111308047429 11.200607702848398 29.995360644438676 0 0 0
249 1 0.358841984792874 5.500887692161096 6.926539167365084 31.60118694699927 0 0 0
252 1 0.1707757959636887 7.486934324996566 8.788034592446923 31.318377567330252 0 0 0
258 1 -0.07355460559822846 8.95166246733892 10.725311817304927 30.733655498276654 0 0 0
244 2 0.1653671095016242 2.6233164126193125 6.2282046688687265 31.28862673494484 0 0 0
103 2 0.1775201582566088 10.343245473153619 5.357320084718394 30.003630251622155 -1 0 0
86 2 0.1288267503850701 4.804815589686653 2.5049779338027793 31.89692803405179 0 0 0
99 3 -0.4973974891212707 9.44594922344659 2.8941265492366908 30.261995108973785 -1 0 0
93 1 -0.1228891967981766 12.633698320204566 12.7680200774025 31.934012798720417 -1 -1 0
104 1 -0.112544875623405 9.741070619862565 5.238314122846196 30.876458569403077 -1 0 0
101 1 0.2460048576636056 9.0996509535292 3.964909644631673 31.050605697220256 -1 0 0
95 1 -0.1464583031104635 11.364499395780964 2.45460695632175 31.717037610417343 -1 0 0
110 3 -0.4753773916650822 11.334756748464631 7.943777124966923 31.17022169637911 -1 0 0
107 1 -0.04865790383093045 9.807357301193228 6.234437853884721 31.952233886468505 -1 0 0
74 2 0.1616177155144601 2.944246684566551 9.34779014549169 31.001910495344212 0 -1 0
109 1 0.4028825531889201 10.502617964426662 7.5805463125306725 31.966965955921594 -1 0 0
81 1 -0.3056445381185656 4.711967638289343 12.24990294412705 32.055746008416094 0 -1 0
79 1 -0.2751644336971313 3.519038733142375 10.0750316352409 31.75662127610601 0 -1 0
84 2 0.1582574958783787 5.717306343410439 11.869957492752324 32.054406591542055 0 -1 0
261 1 -0.1207125467240509 8.54467434946008 11.36929267790292 31.901649907319808 0 0 0
82 2 0.1606146783520989 4.573625280874429 9.568039115959202 32.09752770282251 0 -1 0
266 2 0.1815839572843473 8.922003079350777 12.340773568319033 32.12809690127472 0 0 0
100 2 0.1509848040757462 7.833005394448007 2.856552670465244 32.40546829099808 -1 0 0
102 1 -0.1536915423217634 8.335232762043814 3.7887865783165897 32.247848208728925 -1 0 0
272 2 0.1632346242120575 5.596728975433988 11.054624693924104 38.410289993710514 0 0 0
97 2 0.1692287588159685 10.975063169504445 3.0142286986478735 32.56522844665003 -1 0 0
271 1 -0.08769058543324441 6.514970931525088 11.59907709491073 38.07418199667845 0 0 0
147 2 0.1437035310015902 10.91972950924465 12.533042441823476 38.231980181102564 0 0 -1
144 2 0.1452582717304211 4.388497167124724 3.626180598285294 38.26220919347012 1 1 -1
251 3 -0.4246805027236027 5.273961196910697 6.965111434289836 32.76928664372906 0 0 0
255 1 -0.1509831983008547 7.149843024696632 9.581597388749941 32.480737473509045 0 0 0
131 2 0.1790871847356308 7.219782916578554 7.964347598593374 38.246166634069716 0 0 0
122 3 -0.5287278858455222 4.098019110007275 9.302522269941381 38.29982402574742 0 0 0
75 2 0.1465970042173341 4.378067386520048 12.153658293587672 33.089953252355265 0 -1 0
91 2 0.1186816685898449 2.2900969188563534 12.957193236991596 32.80445501525334 0 -1 0
137 3 -0.4809604629745607 8.586820053358501 5.687198114733096 37.97209556334819 0 0 0
85 2 0.1645514591567369 2.8830194898608807 10.24299295598972 32.686601748089096 0 -1 0
125 1 0.4202888909244214 4.185037409322772 8.331359318096801 37.60221685802179 0 0 0
132 1 -0.1177611938060945 6.6256214355089185 7.106895203135098 37.96706983827163 0 0 0
257 1 0.162973328886048 7.683549463889279 10.811328398977363 32.88126307806448 0 0 0
253 2 0.2334898739622266 6.598462742500341 9.07978307467636 33.248494750963175 0 0 0
269 2 0.1771753906296148 9.754184285885554 2.9577264752811803 37.257702541820116 0 1 0
135 1 0.2903546050015006 7.280584880667858 5.833548368710222 37.827062010312304 0 0 0
9 2 0.1876028891626776 11.098330944326172 6.55473942352536 37.700882415506435 0 0 -1
270 1 -0.1597243928262868 8.850939761896413 2.340327629085733 37.451291277877374 0 1 0
129 1 -0.04869611321133961 5.232257477984458 7.227605920004888 37.70128866049289 0 0 0
105 1 -0.0562914535590342 8.25694494660635 4.775031737022115 33.26074052183834 -1 0 0
108 1 -0.02742318395568564 8.935681214271035 5.993471380650407 33.19815878007493 -1 0 0
106 2 0.1670575132367833 7.649415513723156 4.649176552244311 34.137296848510466 -1 0 0
116 2 0.1885443730190015 10.92862838913987 10.817781504969584 33.371105146597685 -1 0 0
138 2 0.1732190049023985 7.31683148801956 3.78283135704426 37.167622879829814 0 0 0
267 1 -0.06757369157619289 8.178630218145699 12.503541683719849 36.40276216601965 0 0 0
268 1 -0.05144943431307615 6.9847997245187035 11.595003948532515 36.70020626349574 0 0 0
111 1 0.3961916103554837 9.15903104878412 7.279186617347397 34.02611960599565 -1 0 0
112 4 -0.4082065181271794 10.09794691710367 8.255894637792059 33.26749893523965 -1 0 0
260 3 -0.4981134280490054 9.540036160175752 12.68036232698606 34.47065788623134 0 0 0
263 1 0.4035910534627052 8.501465305242235 12.38910100427811 34.95867771331572 0 0 0
265 1 0.4023226478052941 6.499863119428167 11.143031342821487 35.33719304738622 0 0 0
264 3 -0.4576343026333988 5.413294830723554 10.643419477578504 35.172883685434044 0 0 0
262 4 -0.4589019014575669 7.40516128851458 11.584580974301463 34.211181834027464 0 0 0
113 3 -0.3927858544902393 8.67881170170146 7.362889117162121 35.1069360613299 -1 0 0
124 4 -0.4227331104221749 3.0681738745058276 7.876177481165665 36.60771208976487 0 0 0
127 1 0.386185725188153 3.287616013121215 6.2582012285827355 36.36933074603964 0 0 0
130 1 -0.04818105624661428 4.606978426953177 6.016727693566258 37.041909270533615 0 0 0
136 1 -0.1376114421379711 6.627989338686862 4.638146053762089 37.3075215650232 0 0 0
133 1 -0.08924128959261679 5.3449092211395755 4.775198024347047 36.747006543033955 0 0 0
134 2 0.1382893177788001 4.8270765737777745 3.9620536093338234 36.117168687657816 0 0 0
126 3 -0.4774923405809018 2.6444076436335013 5.36237420990205 35.89833837199875 0 0 0
118 1 -0.09773900175762409 11.484725320247897 10.24079147863048 34.09525598211072 -1 0 0
117 1 -0.1478470028248932 12.07931025914429 8.088275885871948 34.96444043485462 -1 0 0
119 1 0.2019268260772385 13.076460470591496 8.690220154287772 35.807780441463834 -1 0 0
120 1 -0.1074993563620549 12.553115259563913 10.915921480282886 34.80264979184731 -1 0 0
123 1 -0.1121845774463225 2.2850708190068816 10.10917603994552 35.84726142802885 0 0 0
121 2 0.1270548514969797 12.71514500194342 11.996377557114855 34.832188230137405 -1 0 0
128 2 0.1827604587284245 3.045432983347383 10.585761099615713 36.4493623820651 0 0 0
114 1 0.1705034365320795 11.199143953139082 8.904159585892636 34.15436144172936 -1 0 0
115 2 0.2033098132990775 12.017456038776714 7.046331418897705 34.84339872467621 -1 0 0

Velocities

5 0.025007287209102072 -0.013498048655642485 -0.02055320497288119
7 0.0005604419888480953 0.00015775250271226447 0.0034488241256232562
20 0.0018100587128328186 0.0037808865390903433 0.007792804519249788
24 -0.0026176470667825763 0.009937039990758593 -0.0016865728379674885
153 0.0014062055266177574 -0.0031051759115983575 0.036770117458005964
10 -0.003053299178924549 0.010295913557115791 0.0016191750643479957
22 -0.008394254498186805 0.006202129475140004 -0.005384569954527211
15 -0.029561695792028025 0.008924620002623635 0.01839349853133511
17 -0.0008951203995272247 0.0035425371971273046 0.0008397783136144266
18 -0.003223320951392672 0.03134609196674019 -0.012352810211688638
11 0.003240384711137155 0.003931234779309248 -1.484314624873598e-06
14 -0.0026944749719379464 0.004564809720258669 0.002535341623222394
4 0.0022879743272150588 -0.01701152744923491 0.01396125176658845
6 -0.013791035433548371 -0.018349163393412218 0.048350144148416326
13 -0.01288088276938257 -7.4278046256398356e-06 0.00691693883951844
19 0.012770480467930508 -0.015573056283775498 0.008618455900774721
142 0.006998001923019292 -0.012586814635940058 0.009009152300640472
149 0.0009735997114618305 -0.001913455305326918 -0.0005225586429039286
155 -0.004478950963516377 -0.008386141431998369 -0.0018226369127071205
139 0.03405457566213548 0.019207143496195667 -0.0147058929909806
140 0.0016858732758387553 -0.0004351504584999454 -0.007384525434363835
143 -0.012594447369505844 0.009665188335475543 0.018799993094076362
145 -0.0037148067260641777 0.006155731407713877 -0.006810164324071341
148 -0.0019313868352866521 -0.008945692347244663 -0.00579525364896722
158 -0.0027133695065036318 0.0013252901818119232 -0.001849809007072835
160 -0.016858562389565578 -0.0039668278717263855 0.007891902526140401
162 0.005519678783084078 0.0031146923138203287 0.0032082649498358343
164 -0.00019258295051746097 -0.001006610610671183 0.005863775680334547
166 0.0054746573844467695 -0.01553780796284852 0.014319440844604202
161 -0.0026691677517205587 0.01157865493199529 0.001006345116005275
167 7.630097387675644e-05 -0.005094867788194785 -0.010092299813813993
163 -0.002763003795889427 -0.003406916210181082 0.0009989557592907116
168 -0.0011581408321757387 -0.0029295124885523284 -0.0023207948719649067
141 0.006515633261036597 0.006976421748076395 -0.00027433336659479643
170 0.002328425395806225 -0.012943817290810719 -0.0006841744269438107
275 0.0018037347114459091 -0.001975152968508929 -0.0047031945050540975
151 -0.0002215373179736876 -0.042253272693001116 -0.026483542410331847
159 0.015237029817139862 0.016675753168873608 -0.005763812288418727
165 0.007642835505122362 -0.011261659718966652 -0.023964624698632073
169 -0.023968524185030468 0.03652543503326753 0.02998421637141401
2 0.004766695518994825 -0.0017045467252003932 -0.0031051571734627
1 -0.004305738542650828 -0.018885297051172967 -0.012511642453855082
150 -0.003126744402107481 -0.0026263068811901817 2.9248118509993175e-05
276 -0.014400898454646602 0.03062210712053457 0.006918873988538855
172 0.016590664869974483 0.037708770318757474 0.001590585509193206
152 -0.0023871316938965125 -0.0007062905108388083 -0.00041363717628853456
156 -0.013598612978580128 -0.008358927325251661 -0.028902710003954495
146 0.006501791562589914 0.015853708675156862 0.0011053090076977663
12 0.0005194895695718914 0.003490979970355251 -0.004606941108624227
26 0.004923423431651676 -0.0007919166746970181 0.00010656244051570047
28 -0.017412005410785792 0.006621612945806987 0.017279685821200406
171 -0.0019012372453342623 0.0037030726683663123 0.006678305026321946
173 -0.002584167064365112 0.005307840377668158 0.005241349768562683
23 0.0033853240858334 0.008898420493035939 -0.002331033719571546
21 0.008646921767119215 -0.0039041899870636866 -0.002018896149939636
16 0.008618152903573454 -0.010214065953363712 -0.01632635332465385
274 -0.006142266195671687 1.0465082851730494e-05 -0.005504780436776686
273 0.00016870277488167018 -0.002867781174767734 -0.0011477106030169885
157 0.010615132825434848 -0.01819192888650927 0.0009403414872403244
3 -0.001008817348911762 0.0009429226708978405 0.006109332210187376
8 0.011339660660149525 0.0023077479816356757 0.00020256983851668712
154 -0.010269775490602833 -0.01763671885502919 0.05310047453573772
25 0.005027693443099527 0.005910752812122358 -0.006976580978681343
29 0.010675766028679767 0.006787688318047948 -0.0043095797530717204
174 -0.001995767515721115 0.0043318856444684375 -0.0056777130055535915
175 0.005711967998757692 -0.03880437849589458 0.009802143079909184
27 -0.004195255541584333 -0.0028738878580655963 -0.017043061939870797
176 -0.0025420842346719854 0.002481324218189947 0.0046055203746915106
179 -0.004990982555876858 0.0010960320791974004 -0.0005562965824311775
177 0.0038322054067353845 -0.0033055696451529 -0.0076793550116972574
30 -0.005974565165521651 -0.002824304633169744 0.0009926528549280514
34 -0.001266456532836999 -0.007595927551029685 0.01375032733849108
31 0.001584450198640203 0.010675062234980229 -0.01187515630625616
32 -0.0032265917553666095 -0.0007034254990819973 -0.002183414543412707
33 -0.0001129480634596639 8.194753316395589e-05 -0.00499034801143773
35 0.0031241194022882937 0.004332207322815701 -0.006427326696855004
36 0.0009637965264610576 0.003246040227146149 0.0031112538067183857
38 -0.002279501202506014 -0.0062980491649957775 -0.004015634107146594
39 0.0009761132495146784 0.0030360934377745633 0.0028338374665753474
42 -0.007564834046863039 0.003541888937636447 -0.0007539425965620923
43 0.000799054083575482 -0.003925736883463024 0.001137159409406925
40 0.0008057392005444985 -0.0005924119037782257 0.004336044889228245
41 0.004784011196006637 0.004234729347889447 0.0027797363834061602
45 0.02989660325048287 0.0035130944625162155 0.019833692055087157