LAMMPS data file via write_data, version 2 Aug 2023, timestep = 40000, units = real

1128 atoms
3 atom types

0.012578756296600435 4.426811243703371 xlo xhi
0.02304864084324798 8.111452359156768 ylo yhi
0.7386621700809144 259.9555888299242 zlo zhi
0 0 0 xy xz yz

Masses

1 12.0107
2 18.998404
3 1.00794

Atoms # charge

14 1 -0.1540467484998914 0.6007331399841035 0.12377268296977231 1.1357937732223433 0 0 0
15 3 0.1868873766690934 1.3965746548727296 7.501919029780626 1.22434146686508 0 -1 0
16 3 0.1796176654151739 1.1978279576986697 1.049314428237525 0.9934373233599773 0 0 0
17 1 0.07353616710695726 4.259441497155681 0.13434527157346193 2.438985773712303 -1 0 0
18 2 -0.154273204735734 3.4532521675162213 1.2657726149554198 2.4002636271636715 -1 0 0
19 2 -0.1525763317854912 3.401953387655319 7.134651885805146 2.402859320545244 -1 -1 0
20 1 -0.1416936204324742 0.6863893974712649 0.13911666831590352 3.8382353432374727 0 0 0
21 3 0.1968940460022023 1.4230585825142261 7.428262373114713 3.721879373314302 0 -1 0
22 3 0.1955037893166313 1.2425880428796372 1.0972345389479616 3.8112130274576126 0 0 0
23 1 0.1238649856008892 4.312433287143211 8.048775670251151 5.104396553372112 -1 -1 0
24 2 -0.1433034026277799 3.3679897264436094 0.9708542530759627 5.140482951628474 -1 0 0
25 2 -0.1446093264693933 3.6065079388650396 6.824083317403235 4.958544533882636 -1 -1 0
26 1 0.003165529801393669 0.6359487732616466 8.084301242707985 6.561427143156633 0 -1 0
27 2 -0.1420317772436493 1.7708857597340557 7.170335352333341 6.509899321404473 0 -1 0
28 3 0.2151544691366886 1.0054258174805275 0.9476262274901623 6.538280376649814 0 0 0
29 1 0.1229840882998613 4.335962221666094 7.920198516960521 7.958257147801948 -1 -1 0
30 2 -0.1431468407468102 3.318221907093283 0.7880728131714407 8.042475434015534 -1 0 0
31 2 -0.147424948034074 3.6752023630883652 6.690063355903488 7.9722191228269415 -1 -1 0
578 1 -0.1574315926764494 2.876310532259012 4.121617175364613 1.2569757995206055 0 0 0
579 3 0.1818692415768768 3.546320988258544 3.294504637627593 1.3333652011566286 0 0 0
580 3 0.1902835324551315 3.533085567482383 4.9318752595092334 1.2387824500385487 0 0 0
581 1 0.06681936095693411 2.0310816948235617 4.195523916355454 2.559088994045111 0 0 0
582 2 -0.151367383356201 1.2625332105968345 5.37221797928129 2.540825581153033 0 0 0
583 2 -0.1534397025006214 1.1579151622618535 3.105483685209409 2.5424129683120675 0 0 0
584 1 -0.1472611679070529 2.7739771986365787 4.206551657408219 3.934362133224225 0 0 0
585 3 0.1970500760744011 3.584343915299932 3.4668078614560045 3.86543632700925 0 0 0
586 3 0.1970911164601881 3.153635056456926 5.173416326438138 3.893623746694485 0 0 0
587 1 0.1255461443463512 2.0850675518598734 4.026132233664853 5.285576352710671 0 0 0
588 2 -0.1439286316775951 1.0570493213664456 4.922611595776866 5.381462813403834 0 0 0
589 2 -0.1428924641645759 1.4489854954144277 2.7765029972441115 5.2774194550103575 0 0 0
590 1 0.002032264196439797 2.912464519173814 4.031810806036883 6.686016681447438 0 0 0
591 2 -0.1402200608959281 3.9361725049078946 2.9331590367287452 6.643010659144357 0 0 0
592 3 0.2091740630470756 3.4902335671341125 4.922284963521124 6.641146470480991 0 0 0
593 1 0.1229202732604665 2.1281083099676485 3.960577465882234 8.010806448278247 0 0 0
594 2 -0.1479581630531347 1.1398769172223622 4.995701884081013 8.042921032965452 0 0 0
595 2 -0.1426053626851623 1.4378601985560737 2.7739889702410148 8.071072509257519 0 0 0
32 1 -0.1445448286204222 0.7223695982039477 7.996834698936257 9.27189616112804 0 -1 0
33 3 0.1956711252376157 1.3510624818952102 7.157704301335804 9.268937544908638 0 -1 0
34 3 0.2037160699047584 1.3796365173943808 0.7390535258723147 9.302393089438556 0 0 0
35 1 0.07861632692074239 4.3064273575861325 8.047956795086444 10.600820473011188 -1 -1 0
36 2 -0.1486537124818794 3.5051281265950105 1.0934569893750796 10.515298158448424 -1 0 0
37 2 -0.1547548749860999 3.438382024673627 6.930749223793738 10.573044891930978 -1 -1 0
38 1 -0.1422546507594955 0.607417230172583 0.032874164649640776 12.041646236301174 0 0 0
39 3 0.186513308441778 1.1393823855137262 7.141562240182461 12.09420949403594 0 -1 0
40 3 0.2045043380645373 1.4056555787594758 0.7352464187270525 12.057308126212355 0 0 0
41 1 0.1196171370164575 4.195526639213968 0.08511483176968976 13.312655584918623 -1 0 0
42 2 -0.1427346841713779 3.4948822717075028 1.2525176159520415 13.262519862721406 -1 0 0
43 2 -0.1497978576096462 3.241882227915868 7.127999006984705 13.212227722365375 -1 -1 0
44 1 0.006675755501355567 0.5769122534178066 8.050697963300006 14.71637699646285 0 -1 0
45 3 0.2030661415964356 1.0500118446221454 7.0790606379518906 14.657291967217159 0 -1 0
46 2 -0.1393933229092582 1.5978587962837623 0.9629886249237486 14.705078560580652 0 0 0
47 1 0.12837212789456 4.222868904800968 8.109257379977084 16.09704306907767 -1 -1 0
48 2 -0.1409990416376251 3.5724858227639777 1.2736703909321248 16.169850479006335 -1 0 0
49 2 -0.1481481059318536 3.129880164309556 7.212909305402805 16.070359444526233 -1 -1 0
596 1 -0.1459161158175064 2.8723694448964348 4.054792804263079 9.373695230041392 0 0 0
597 3 0.2058472798459038 3.7044652449280706 3.403852681630513 9.391369783618494 0 0 0
598 3 0.1900343576688641 3.2632867708786426 5.047945591001138 9.382168607614949 0 0 0
599 1 0.08105311824720433 1.9984807255977415 3.961869655533378 10.658337561643362 0 0 0
600 2 -0.1547923416106023 1.095275189390098 4.951486801560365 10.680883550031098 0 0 0
601 2 -0.1488957170615327 1.293096335274426 2.768445241818732 10.602940752316897 0 0 0
602 1 -0.146813927751011 2.7129429085450223 3.9675111729820376 12.106156907472029 0 0 0
603 3 0.1996522206526387 3.410264233608735 3.1574358472539745 12.180342375403493 0 0 0
604 3 0.1922882537118203 3.3511427729425396 4.806979630732635 12.15395507917683 0 0 0
605 1 0.1137073186971272 1.9294299491458309 3.994383693651817 13.40376968905233 0 0 0
606 2 -0.1498304578632877 1.097123793633302 5.129307660337708 13.253667739939626 0 0 0
607 2 -0.1433057768697244 1.1048959212704461 2.8457128051134943 13.339320234928694 0 0 0
608 1 -0.008658230165291905 2.7031425631681776 4.070618735283367 14.756712663584171 0 0 0
609 3 0.2120586095448115 3.451606662067484 3.303913261145342 14.809156887393094 0 0 0
610 2 -0.1469649736888703 3.5525350719652917 5.198259848932611 14.744207104979482 0 0 0
611 1 0.1124499511020726 1.9031678840442265 4.074152132971369 16.214123016934238 0 0 0
612 2 -0.1496322658910696 0.9985483313972027 5.175211939329036 16.233717627489675 0 0 0
613 2 -0.1426098782067547 1.1753881678645173 2.9202499421825663 16.27784861238787 0 0 0
50 1 -0.144577412283313 0.47548637716988756 8.00484062544147 17.477041306392238 0 -1 0
51 3 0.1818671749832032 1.0889054817834851 7.070538015580409 17.570705889730455 0 -1 0
52 3 0.2042749187876484 1.236872573105672 0.6434427819693167 17.522073938961015 0 0 0
53 1 0.07411645925804941 4.089089725438253 8.087975485044337 18.833453216965957 -1 -1 0
54 2 -0.1480308656005042 3.3688934448778043 1.1856235289188704 18.895949210226576 -1 0 0
55 2 -0.1561085231104609 3.206847658340282 7.004191594361312 18.797906966607695 -1 -1 0
56 1 -0.1423094268342375 0.4873561954388441 7.940825361436451 20.17957907840826 0 -1 0
57 3 0.1872613607617622 1.1675187617680345 7.029009173745861 19.999067035992258 0 -1 0
58 3 0.2005812046408776 1.1440012795045227 0.6817360658653738 20.323905366418142 0 0 0
59 1 0.1178744323012228 4.216451547119437 7.747164382321728 21.515283754716375 -1 -1 0
60 2 -0.1441682306476242 3.221502146065387 0.5926230407858288 21.598571896764913 -1 0 0
61 2 -0.1476416693342003 3.629194922678459 6.476534292945154 21.409200472760133 -1 -1 0
62 1 0.006557564742157398 0.5819754421998629 7.788999683025584 22.920419111320495 0 -1 0
63 2 -0.1434287012747409 1.7076768303253622 6.936754973992931 22.89722715567538 0 -1 0
64 3 0.2114926151323749 1.056472304179421 0.6770968727166377 22.863505892889687 0 0 0
65 1 0.1228820560793099 4.231336377391958 7.728180413914825 24.340900726948632 -1 -1 0
66 2 -0.1462532459833578 3.238471620670385 0.652370428056235 24.332627130403942 -1 0 0
67 2 -0.1457232734006423 3.522100084475071 6.542155607566012 24.476195591847855 -1 -1 0
614 1 -0.1542665574463563 2.738380964782966 4.076849005376551 17.46324957654379 0 0 0
615 3 0.2049077946559432 3.3830859571049166 3.2917438478164605 17.389973160561233 0 0 0
616 3 0.1922425401344029 3.174134997303706 5.054304978834847 17.41485241255676 0 0 0
617 1 0.07413716123186137 1.9202983851141766 4.031991041276075 18.846127257389515 0 0 0
618 2 -0.1563303013797175 1.0582593463054273 5.135046968793495 18.89880567440432 0 0 0
619 2 -0.1487289268707413 1.1115859472268812 2.8923350913025385 18.79776872081477 0 0 0
620 1 -0.1413501336522122 2.777243219867149 4.006152601461844 20.171375878431682 0 0 0
621 3 0.2053586184337487 3.5015644381125033 3.194626508927894 20.090289049777756 0 0 0
622 3 0.1922262439447622 3.300614024769643 4.93217695779727 20.152286031164003 0 0 0
623 1 0.1238937417080613 1.9769901965425498 3.7917859389843396 21.51361846036063 0 0 0
624 2 -0.1462049398749943 0.9369273887035429 4.729158417732632 21.530572091956355 0 0 0
625 2 -0.1434751366274657 1.3390726013145595 2.52285595790613 21.357747388912884 0 0 0
626 1 0.004909940274595509 2.773589342147232 3.8202875152818323 22.867982009679636 0 0 0
627 2 -0.140557462889763 3.839217292894886 2.8334853322089026 22.828348623857686 0 0 0
628 3 0.209817076500921 3.0345637108211907 4.831907904528069 22.930001156547146 0 0 0
629 1 0.1165721849414468 1.9348593034609378 3.5902122468905207 24.250570654888886 0 0 0
630 2 -0.1448595470864223 0.9642366514854666 4.575645039923496 24.333470781936047 0 0 0
631 2 -0.1446098303966855 1.3272387765730236 2.372569473021822 24.159050124051035 0 0 0
68 1 -0.1458408573630625 0.6002423731687628 7.873595541474414 25.636937564850875 0 -1 0
69 3 0.2008883878687881 1.27599077998398 7.0352535196132004 25.65497600417909 0 -1 0
70 3 0.1927525376278079 1.177041265313529 0.7033491420678045 25.688545301004208 0 0 0
71 1 0.07320034903787437 4.210694952792734 7.850321347098248 26.986977729912685 -1 -1 0
72 2 -0.1533841634517873 3.4050431883544574 0.8552902550394209 27.045862188051192 -1 0 0
73 2 -0.1518566104411983 3.396779265549339 6.754978550939131 26.98094584063544 -1 -1 0
74 1 -0.1480969184320697 0.5999110620770506 7.683447832947101 28.36245861544714 0 -1 0
75 3 0.1975595444395485 0.9270360794012892 6.6403983007216985 28.316372412770985 0 -1 0
76 3 0.1952469809226661 1.4649400698632706 0.1684970207790701 28.377104953440043 0 0 0
77 1 0.1199530394135929 4.3193615526571065 7.9687551325319665 29.663943527772187 -1 -1 0
78 2 -0.1468735241486062 3.7442474633526186 1.1461173977240082 29.587968623122038 -1 0 0
79 2 -0.1446005094198276 3.2857410798325457 7.0073201496454125 29.710302705032127 -1 -1 0
80 1 0.0006622962868601378 0.6887362455486862 7.948480291270244 31.104714523662746 0 -1 0
81 3 0.2098570366540463 1.2651679257845934 7.021898683743988 31.06591520670182 0 -1 0
82 2 -0.1448813552399967 1.7285179028525237 0.8338790852796566 30.987709078870193 0 0 0
83 1 0.1115473851806136 4.315499928075864 8.029978453390703 32.47744480399237 -1 -1 0
84 2 -0.1486181854540671 3.603247531876515 1.1552909570745926 32.52544346572658 -1 0 0
85 2 -0.1459193091962634 3.371806324767981 6.975431389607659 32.5251004266465 -1 -1 0
632 1 -0.1493113505456088 2.690232113708841 3.6515985633009014 25.591930229302108 0 0 0
633 3 0.1974633508320209 3.309939795548424 2.783093364268298 25.6297361965523 0 0 0
634 3 0.1996416475664718 3.2893411049119505 4.486678608769416 25.503260311434964 0 0 0
635 1 0.07358754075779553 1.9336692049598403 3.81747285166545 26.980648412600566 0 0 0
636 2 -0.15104934054118 1.4016949669338465 5.120045680136866 26.99560082674979 0 0 0
637 2 -0.1515713563427163 0.8499390433530929 2.9606154224505663 26.959809713648273 0 0 0
638 1 -0.1494710967681171 2.6784406209806217 3.676001566495171 28.39860573127072 0 0 0
639 3 0.1957670807439887 3.1082495705184043 2.7369192026176505 28.39292098528058 0 0 0
640 3 0.2012662542727764 3.4885353150390723 4.357134963263959 28.427088659517715 0 0 0
641 1 0.124407162136142 1.9738743718679843 3.8722349570991805 29.717888764568613 0 0 0
642 2 -0.1435822427768002 1.4651284647027674 5.206411671512832 29.678249668541234 0 0 0
643 2 -0.1452758403016601 0.870461514540169 3.0389550504212828 29.69871654489809 0 0 0
644 1 0.006392083570623998 2.756276791115177 3.7101434594775498 31.155568257938164 0 0 0
645 3 0.2096972858322775 3.120500559918096 2.7205896276649932 31.151147864279668 0 0 0
646 2 -0.1406561023278803 3.9325566328483386 4.514832116125002 31.127470085889026 0 0 0
647 1 0.113686742178769 1.970039087558126 3.9043760718685494 32.5174782494894 0 0 0
648 2 -0.1440840087414686 1.3238721575402779 5.151364882091756 32.478696521688235 0 0 0
649 2 -0.1475110999932163 0.9830316431822308 2.9270796231302483 32.6320972584543 0 0 0
86 1 -0.1454011489075259 0.812550056721599 7.974098955014747 33.7523910876897 0 -1 0
87 3 0.1952274970675963 1.2758201941851641 6.988319430349251 33.69741869212531 0 -1 0
88 3 0.194602579072083 1.589878665347571 0.6254509378372026 33.68060094569199 0 0 0
89 1 0.07161684604600291 0.05709307376225886 8.090707839194904 35.12565892615387 0 -1 0
90 2 -0.1522682387302814 3.6849770171409264 1.1448649948043088 35.122253231814355 -1 0 0
91 2 -0.1505586554585358 3.577578063876585 7.056319018261292 35.188212575672885 -1 -1 0
92 1 -0.1606504144606357 0.9338640104442374 8.063387651189272 36.46631127311715 0 -1 0
93 3 0.1968271879465675 1.552736047335567 7.260745326845485 36.51560533195087 0 -1 0
94 3 0.1967689002179735 1.5509387999982638 0.8351251116985858 36.51489711618364 0 0 0
95 1 0.08923152272715651 0.249641522456434 0.04864707961434586 37.785859234672365 0 0 0
96 2 -0.1381230116923811 3.41172386518264 0.6244628632449778 37.79510107722745 -1 0 0
97 1 0.08333449728845135 0.8253818356936624 7.708140138630873 38.92667194500133 0 -1 0
98 2 -0.1359437934817971 2.0726327552648027 7.020144693908714 38.87791836205478 0 -1 0
99 1 0.129397609537679 0.14209385161814225 7.75613597605374 40.24360284648273 0 -1 0
100 2 -0.1402636481395524 3.632074960024093 0.6786225682334878 40.30396609635259 -1 0 0
101 2 -0.1397759110630008 3.820632488053849 6.5496430647359505 40.466731969232676 -1 -1 0
650 1 -0.1485690031152895 2.735723153457351 3.8038553283132837 33.854173960797056 0 0 0
651 3 0.1894345778040427 3.172784390680026 2.8301055281476484 33.841091734459525 0 0 0
652 3 0.2001526170771721 3.603672701644744 4.471212230688281 33.675055836322464 0 0 0
653 1 0.06777419595736513 2.0188826559791075 4.055623224851648 35.196774030638345 0 0 0
654 2 -0.1498677848147981 1.2327585424104543 5.16353813522563 35.164936372618605 0 0 0
655 2 -0.1502796848343857 1.1605203186266428 3.008668914144406 35.407423972802796 0 0 0
656 1 -0.163459919261277 2.971681912494613 4.109345944918041 36.558531069032085 0 0 0
657 3 0.1965122957476518 3.5262400694368057 3.218785254813583 36.5152774006029 0 0 0
658 3 0.1996599983896977 3.5978099465998308 4.8990182551179995 36.50015100827606 0 0 0
659 1 0.09492274922230798 2.2911789391053796 4.22670986415952 37.8593894645101 0 0 0
660 2 -0.1368847583557681 1.1089331778161975 4.885375794513696 37.95549271267674 0 0 0
661 1 0.0774553377305596 2.964082974671832 3.6746167670487564 38.899165213994316 0 0 0
662 2 -0.135931137553349 4.1485634530584665 2.9437495283069306 38.69936012364236 0 0 0
663 1 0.1237255561116324 2.287376141135419 3.4916761922495962 40.21435783983363 0 0 0
664 2 -0.1400004641794179 1.2300051135880843 4.337999141265509 40.36336160924048 0 0 0
665 2 -0.1400130029458986 1.743166545566013 2.1820510339432677 40.31954653471001 0 0 0
102 1 -0.1349512902921521 0.9680703750235402 7.908116467010838 41.59590194690183 0 -1 0
104 3 0.2043640113287276 1.6093363091903634 0.6378539531332151 41.53909132414489 0 0 0
103 3 0.2010978581469323 1.6345546500385384 7.025069455092328 41.6464210165728 0 -1 0
105 1 0.07960960284295837 0.21667855914886108 7.97846683668043 42.94256260477376 0 -1 0
106 2 -0.1514938120471091 3.7505526270163765 0.9876374159668371 42.86883246567046 -1 0 0
107 2 -0.1509961367872271 3.7811683048837743 6.897743743904205 43.02367316314628 -1 -1 0
108 1 -0.1436589838018796 1.0082306978648172 8.01976639591173 44.329331876510345 0 -1 0
109 3 0.1989651633182089 1.5006396171001648 7.138218810211072 44.406139598753015 0 -1 0
110 3 0.2017242745863161 1.7588693593449996 0.7805696633663567 44.332103796460785 0 0 0
111 1 0.118220202659874 0.18242205996561978 0.06681358425627185 45.60140095551021 0 0 0
112 2 -0.1463281065366783 3.9470549199170697 1.3048790015311884 45.480922626448525 -1 0 0
113 2 -0.1472314961344962 3.5715548231186833 7.21214613879979 45.50397845656827 -1 -1 0
114 1 -0.0007488779414668283 0.927562398188642 8.092069243231625 47.05499372371433 0 -1 0
115 3 0.2084118207689315 1.4663905615034454 7.201876576539818 47.013642754210004 0 -1 0
116 2 -0.1418173027356098 2.022686058222868 0.9350508766252176 47.04905346756449 0 0 0
117 1 0.1268592294730204 0.07993423755653374 0.10035216700881522 48.37160195270481 0 0 0
118 2 -0.1445507311655439 3.9493077612896115 1.3999571236857375 48.466426397001534 -1 0 0
119 2 -0.1475566516833076 3.4675548245579075 7.328303139997708 48.37364260443442 -1 -1 0
666 1 -0.1433516079991727 3.1230082386741893 3.656404761120833 41.57119083883837 0 0 0
667 3 0.2020641576575324 3.7918309952747324 2.890486842388846 41.611579954662055 0 0 0
683 2 -0.1445066880939086 1.5754398655846904 3.07671005913825 48.29578020462225 0 0 0
669 1 0.07635225513622226 2.419917658581677 3.8043937402044143 42.93979895139832 0 0 0
670 2 -0.1508759008622085 1.632406955209081 4.95133927827574 42.92831143435481 0 0 0
671 2 -0.1521421128932035 1.5726052053645296 2.7006344541804683 43.085335192058395 0 0 0
672 1 -0.146345541475988 3.319561220806063 3.9147531871098136 44.24552381218075 0 0 0
673 3 0.1972312986315601 3.8609758765191735 3.0108398155363836 44.30698290650301 0 0 0
674 3 0.2003244472977437 3.9978704813093313 4.767432995862044 44.15023866273962 0 0 0
675 1 0.1231451015473794 2.488534681336226 4.085917396537711 45.51611360019828 0 0 0
676 2 -0.1478813724723078 1.8916918562110492 5.340450636414571 45.386226345215086 0 0 0
677 2 -0.1472536729867745 1.4470481478934112 3.166243164339111 45.53668822186477 0 0 0
678 1 0.001458033847054967 3.2977037089851993 4.084269302632593 46.918429607238444 0 0 0
679 3 0.2108357725750519 3.964583812873046 3.2451509080846 46.969087461663946 0 0 0
680 2 -0.1445835593545656 4.182762059290086 5.170803408937868 46.92279710683491 0 0 0
681 1 0.1248303083182461 2.4546309932240242 4.129197115023513 48.3067733050347 0 0 0
682 2 -0.1474778974448869 1.7556905111575163 5.286769380239232 48.32419801065678 0 0 0
668 3 0.202532904679563 3.7204166582059544 4.519987537839108 41.449186616925054 0 0 0
120 1 -0.1457103070966869 0.8566264134433152 7.98851979786716 49.68442957220089 0 -1 0
121 3 0.1898898732303242 1.3330885237192796 7.073121178081661 49.70294370245406 0 -1 0
122 3 0.2003133019432675 1.69877242870557 0.6822047826846596 49.72581159123194 0 0 0
123 1 0.07436337821619113 0.17873344742142083 0.09157206600462398 51.067229644728386 0 0 0
124 2 -0.1507599080450489 3.8570262856293804 1.220096400952708 51.00661742261846 -1 0 0
125 2 -0.1544151094518559 3.652029364332211 7.133136265989258 51.098082430299364 -1 -1 0
126 1 -0.144833060785789 1.0588481777441117 0.05339951574924108 52.41725455394709 0 0 0
127 3 0.1946438695949048 1.7253436336396404 7.296174024534644 52.36865773192618 0 -1 0
128 3 0.2006503872688905 1.6998562969839726 0.8953774828343741 52.399855741584574 0 0 0
129 1 0.1218359486865209 0.2867843523519576 7.927700680081659 53.72061899053272 0 -1 0
130 2 -0.144433227344649 3.7541946305310123 0.8537882414429372 53.6822991048244 -1 0 0
131 2 -0.1469627090671101 4.029604858144069 6.748848851267881 53.620315390005196 -1 -1 0
132 1 0.003121772320203145 1.0228783935317398 7.986404466277921 55.1517413299351 0 -1 0
133 2 -0.1428994662686089 2.1232104947107935 7.049272264682525 55.2115379212997 0 -1 0
134 3 0.209465873455087 1.4431805215184264 0.8725032626591487 55.17352429787937 0 0 0
135 1 0.1207781601244029 0.1835113927561986 7.860292360236995 56.51073544272269 0 -1 0
136 2 -0.1437928024950703 3.5582276583793875 0.740949893631625 56.448132956982725 -1 0 0
137 2 -0.1460373006225614 4.015954630170562 6.625182702269505 56.57183578020287 -1 -1 0
684 1 -0.1456905434649805 3.199500115061154 4.052416771333927 49.59650605727528 0 0 0
701 2 -0.1440876041664102 1.646215701181454 2.768267262690768 56.60697107667665 0 0 0
686 3 0.1915604112329493 3.79140213456617 4.941412256480192 49.705651850209165 0 0 0
687 1 0.07360897383744613 2.4129026219032816 4.058424617658522 51.00469671719633 0 0 0
688 2 -0.154377178593753 1.5954525995166926 5.142274823154861 51.028948420280976 0 0 0
689 2 -0.1508509651139697 1.535592689505093 2.9435938123094236 51.01603100929338 0 0 0
690 1 -0.1533870885202411 3.184199441862514 4.119771403118853 52.35780641593094 0 0 0
691 3 0.2015015090841923 3.934868542901853 3.382500453472701 52.37658277113906 0 0 0
692 3 0.1924473362455543 3.6777857045911904 5.026723636850439 52.38513874768489 0 0 0
693 1 0.1157116544467609 2.3575927323927197 3.9537014540222155 53.633712269422375 0 0 0
694 2 -0.1474364121420837 1.4044757831817791 4.898488388012634 53.66924802385278 0 0 0
695 2 -0.1449982147386996 1.7158028788802997 2.7354218211085066 53.535395105033274 0 0 0
696 1 -0.002420617965132352 3.119788601193425 3.965159764017701 55.128626163848374 0 0 0
697 2 -0.1420579918846083 4.180396940507828 3.0155150774539115 55.178715565171395 0 0 0
698 3 0.2087895127004226 3.801744282824514 4.71943070728087 54.99536391808603 0 0 0
699 1 0.1230101097349422 2.3354322878299603 3.983821325115921 56.47854828754998 0 0 0
700 2 -0.1459425860797002 1.3897098516206114 5.005629962456796 56.44674900416236 0 0 0
685 3 0.2003556100720735 3.8666123402578063 3.1884306226457353 49.60500280475689 0 0 0
138 1 -0.1392837697971533 0.9103512895841591 8.096770983955523 57.825063164748435 0 -1 0
139 3 0.1971422610965018 1.6847019955582245 7.277531293605986 57.855103371842006 0 -1 0
140 3 0.1994613947632182 1.3978917957144785 0.9980588451620428 57.78580159946902 0 0 0
141 1 0.07952552961070278 0.14278487913128787 0.05875332106199548 59.20377670424431 0 0 0
142 2 -0.1478948380130328 3.8821842100939077 1.2815927699532474 59.21593853879736 -1 0 0
143 2 -0.1532882260359172 3.58447742783536 7.181808481178587 59.19703697383811 -1 -1 0
144 1 -0.1526662934296685 0.9284404399343087 7.998604599838607 60.561458541873286 0 -1 0
145 3 0.1829215278865771 1.5623819157441519 7.133199720674112 60.56280975394813 0 -1 0
146 3 0.1950802527321231 1.5920854076509845 0.7714027329890075 60.587936264436856 0 0 0
147 1 0.08169562122755006 0.16964982958010297 7.969981311529045 61.904420569026485 0 -1 0
148 2 -0.1451508201246529 3.8192060556166814 1.0396744275541094 61.98620788348928 -1 0 0
149 2 -0.1546586265280131 3.682052852382008 6.9134500089156745 61.83383075550688 -1 -1 0
150 1 -0.1503635477879853 0.9956872832778529 7.852992828639993 63.30269767527878 0 -1 0
151 3 0.1806755734162821 1.5671796287314876 6.9288459466348415 63.305955632622876 0 -1 0
152 3 0.1984808735549294 1.7095139958288714 0.5720174167992422 63.28839997685872 0 0 0
153 1 0.08349900295054349 0.2748699284569735 8.030110114221198 64.64059797916498 0 -1 0
154 2 -0.1460040320880863 4.0163113393011205 1.1531102914889324 64.64977100148587 -1 0 0
155 2 -0.1544228894197197 3.6496461452387536 7.048029474820976 64.6814788759061 -1 -1 0
702 1 -0.1414408064359174 3.0896084606030696 4.160585173975654 57.78186430784545 0 0 0
703 3 0.2004514909345088 3.912275685269768 3.451365772214864 57.796866231190485 0 0 0
704 3 0.1947165300344592 3.549053467141164 5.141048645981463 57.72730355420325 0 0 0
705 1 0.07823957556024558 2.3568455721115193 4.120215001399453 59.192685087778294 0 0 0
706 2 -0.1542699655056267 1.5352977555404579 5.2327678184495845 59.21484949504715 0 0 0
707 2 -0.1491338476154404 1.5097454043368281 3.049066263860579 59.23469669453425 0 0 0
708 1 -0.1547543134362364 3.158751414283877 4.152165970323293 60.55927985027245 0 0 0
709 3 0.1941665676696676 3.926013491400325 3.4272349240642725 60.546572160283475 0 0 0
710 3 0.1811905978800671 3.7379956211144556 5.020430293197627 60.550164605779955 0 0 0
711 1 0.0861141686819495 2.4390716769210767 4.120349506532036 61.893287299905275 0 0 0
712 2 -0.1543146163438326 1.443326866316902 5.038242503930902 61.820179202615215 0 0 0
713 2 -0.1450005124520109 1.7845622192924122 2.847255271784175 61.92854641177902 0 0 0
714 1 -0.1525826751567959 3.1454166132273382 4.202802792452718 63.32875030089636 0 0 0
715 3 0.1972814756961792 3.9346326788662065 3.482457162641107 63.35993308360193 0 0 0
716 3 0.1781712624362712 3.6701253792521635 5.1139777901800665 63.41429310619345 0 0 0
717 1 0.08228501472750113 2.3570144634694086 4.050137501256883 64.63944610232514 0 0 0
718 2 -0.1543518202817668 1.3976637020813947 5.018663560136083 64.65209974376305 0 0 0
719 2 -0.1460311290812777 1.7295112438907123 2.837094579222559 64.59864020398777 0 0 0
156 1 -0.1523264543069454 1.044262249479756 8.029176997121022 66.03443538312646 0 -1 0
157 3 0.1840942577849033 1.6252617144682981 7.151571538494996 66.1676239524826 0 -1 0
158 3 0.1948763449207628 1.73710362223199 0.7856664531649588 65.96341438429896 0 0 0
159 1 0.07552160519693818 0.17876663166938014 0.08619952604514396 67.3053487492641 0 0 0
160 2 -0.1490342920748911 3.901260313804108 1.239001072008189 67.17894045956689 -1 0 0
161 2 -0.1527641901697666 3.7229733335021096 7.126710708017948 67.34218801057622 -1 -1 0
162 1 -0.1421354570448634 0.9184358371547682 0.1321889992940773 68.81233674635749 0 0 0
163 3 0.1997152718821051 1.7155827731792732 7.5269114844775356 68.79230219088478 0 -1 0
164 3 0.1973852437939073 1.281902886385409 1.149921287661509 68.76763146327895 0 0 0
165 1 0.1190799225907641 0.24117994243602714 8.106706276935927 70.13343284975866 0 -1 0
166 2 -0.1445250528036325 3.6493005905630262 0.9010480698512988 70.05328593763305 -1 0 0
167 2 -0.1438623191105727 4.030607637620111 6.859624246690042 70.07904487192731 -1 -1 0
168 1 0.003678299770668711 0.9924440261900864 0.14927524562413877 71.59357327047326 0 0 0
169 2 -0.1414371987182993 1.9791004507210603 7.204051009520063 71.61040176612534 0 -1 0
170 3 0.2066895036038091 1.5749967536062246 1.0706705684734534 71.52839539419519 0 0 0
171 1 0.1165490268825032 0.2548151422684082 0.17393564470356193 72.99731640693767 0 0 0
172 2 -0.1478633057427863 3.647701590422639 1.108524941211717 72.93401723734803 -1 0 0
173 2 -0.1436360306514911 3.985461235541557 7.0038238356110964 73.08356018779651 -1 -1 0
720 1 -0.155929634514058 3.1757594261277213 4.217812983490055 65.97004295249135 0 0 0
721 3 0.1927347070272122 3.9037849179173856 3.4126472547988773 65.9838791880677 0 0 0
722 3 0.1806437516761949 3.7895050869880533 5.087008668740504 65.94196268174143 0 0 0
723 1 0.0796554737838478 2.4520204170861963 4.202121737731525 67.33814270981074 0 0 0
724 2 -0.1533859494137306 1.5733025570842503 5.286193166764743 67.3337969728001 0 0 0
725 2 -0.149631677847292 1.609624863219729 3.1185152348648604 67.32662721526883 0 0 0
726 1 -0.1501684811022216 3.224434983280741 4.194584428562098 68.76523244762659 0 0 0
727 3 0.2011886957127972 3.90765189527916 3.4174761331861836 68.74671965969335 0 0 0
728 3 0.1973104707333483 3.7258710101576757 5.08824371009067 68.8553188883386 0 0 0
729 1 0.1130129102833013 2.3589349238091795 4.037857048602129 70.0038359522572 0 0 0
730 2 -0.1454281017316401 1.3868029762054144 4.990957746824361 69.93817963332722 0 0 0
731 2 -0.1454842449973296 1.7366157116332714 2.7921319608366617 69.90649005308327 0 0 0
732 1 -0.002961428604621693 3.0904859482566858 4.114584014558162 71.44122161030054 0 0 0
733 2 -0.1441639290092721 4.16855990638698 3.1517025265355385 71.48250390099949 0 0 0
734 3 0.2079143548528244 3.639139589065271 5.060123376987196 71.42411953761928 0 0 0
735 1 0.1176649811297719 2.3510165617995447 4.071094931025399 72.8575648287071 0 0 0
736 2 -0.1443475810052826 1.3190521127235364 5.0376142276481115 72.88214078243502 0 0 0
737 2 -0.1488578550111475 1.7165106226932048 2.8267958504769624 73.00911205758 0 0 0
174 1 -0.1420582772194869 0.996774597881618 0.3884183668074369 74.30692415975945 0 0 0
175 3 0.2036580188869813 1.7838995117748624 7.712773100308335 74.27406044933592 0 -1 0
176 3 0.1897603921161529 1.5487527913444543 1.3212166195417552 74.2718614660649 0 0 0
177 1 0.08063955098276683 0.20969838277290606 0.40921896913422096 75.65762405061267 0 0 0
178 2 -0.1559438091145981 3.7435171567819934 1.4716896509653765 75.6280062843517 -1 0 0
179 2 -0.1467593893930658 3.8682261608590682 7.280311250210236 75.67940829356688 -1 -1 0
180 1 -0.1497394886863697 0.9298741297537557 0.5944724078099585 77.05133311645615 0 0 0
181 3 0.1991311498170362 1.6872779412749317 7.950297983607943 77.01002883111335 0 -1 0
182 3 0.1822530055636446 1.5115004512759784 1.4873716589961734 77.02697934528338 0 0 0
183 1 0.102272393616714 0.12474635113243432 0.5671035735406693 78.34977539995748 0 0 0
184 2 -0.1530080434571068 3.7459818561147697 1.6724338595023003 78.24214234455178 -1 0 0
185 2 -0.1398150423899108 3.715950279536838 7.52010911663469 78.25636251542211 -1 -1 0
186 1 -0.04150019254002571 0.8624603884531085 0.5279325672988027 79.83519536768361 0 0 0
187 3 0.2115350911903223 1.6318240612255797 7.890505127900205 79.73973572394267 0 -1 0
188 2 -0.1469465352077238 1.650888716838785 1.7413846820329497 80.18034986661178 0 0 0
189 1 0.0975393163606115 0.05910916806061631 0.11998721780000338 81.02838717479395 0 0 0
190 2 -0.1384706281824636 3.192986790233789 7.847321499827772 80.88077327918712 -1 -1 0
738 1 -0.1361980505968012 3.1385065716344687 4.331440104412099 74.12849649530621 0 0 0
739 3 0.1932836694972848 3.916597256429817 3.4954439904669816 74.24473203725448 0 0 0
740 3 0.2040762059339548 3.756790498270248 5.218328881976541 74.02964803200602 0 0 0