LAMMPS data file via write_data, version 2 Aug 2023, timestep = 6106, units = real

564 atoms
3 atom types

-2.6195414476065304 3.35034344760653 xlo xhi
-2.969687497257021 2.973769497257021 ylo yhi
17.103036907435605 229.68058509256437 zlo zhi
-0.009887439058092855 -0.1222672563978104 -0.0973427164581565 xy xz yz

Masses

1 12.0107
2 18.998404
3 1.00794

Atoms # charge

1 1 0.1177375505225904 -1.1407204227982723 -1.7702211515104178 18.294938944421094 0 0 0
3 2 -0.122557877386162 -2.023781389162807 -0.7218557159639634 18.06088208407329 0 0 0
564 2 -0.1224537175950267 -0.0649177973939814 2.141776550072959 17.28126944129011 0 -1 1
4 1 -0.1949796261785408 -1.6335236805065652 -2.530036555006451 19.569916849071156 0 0 0
5 3 0.1886079456334454 3.332238242923564 -2.8424237274960316 19.364294726132368 -1 0 0
6 3 0.1878366044422581 -1.0763105925911884 2.5104730399354285 19.66594440871119 0 -1 0
7 1 0.08671040900072105 -1.7003841127686727 -1.7862195891852148 20.89831010431771 0 0 0
8 2 -0.1310668003998843 -1.7471411541435544 -0.43168225826404916 20.991784544434253 0 0 0
9 1 -0.1330052278715012 -1.9021669926345406 -2.5803064730800096 21.952460025836906 0 0 0
10 3 0.1697238703213469 -1.9429270072641038 2.31123828357752 21.852678708063795 0 -1 0
11 1 0.08741718693110793 -2.2276827299423716 -1.9535606395603917 23.26709550185588 0 0 0
2 2 -0.1219569387026631 0.12076861574735842 -1.2137901851953934 18.5393333733911 0 0 0
13 2 -0.1350950743182441 2.582626854369612 -1.177937781530868 23.13944980279807 -1 0 0
12 2 -0.1336025143966897 -1.1716573997219373 -1.1193087793640504 23.661228446708648 0 0 0
18 2 -0.1201291346772783 -1.7937281850093956 -2.2053927272301843 26.525638461823853 0 0 0
17 1 0.1079658618036749 3.0948021577558595 -2.7794503719396237 25.839736270796713 -1 0 0
16 3 0.1764733135684904 -1.6708905779292273 2.231749553346762 24.374450776916266 0 -1 0
20 1 -0.1838345074395841 2.7370010491966115 1.7162178779708706 26.39159435329058 -1 -1 0
21 3 0.1863201669229491 2.1737044279479916 1.1968537631473684 25.6392819427861 -1 -1 0
22 3 0.2022996691836412 -2.3126729227367253 1.1885084988757981 26.448313752576347 0 -1 0
23 1 0.1380487816434415 2.0515413349318203 1.563920656855963 27.745908806632585 -1 -1 0
24 2 -0.1173694845389805 0.8587394129532253 2.282902863592125 27.747940860888736 -1 -1 0
25 2 -0.1165082047710237 1.7043381889679026 0.22038914961663858 27.904802032696217 -1 -1 0
26 1 -0.02919283701609586 3.0182865362185414 2.023269445488272 28.92696229255313 -1 -1 0
27 2 -0.1173397735586524 -1.6692400000929324 1.3350995291335508 28.788622151508637 0 -1 0
28 3 0.218320600774319 3.2045476301550195 -2.861169876972849 28.870675436174118 -1 0 0
29 1 0.1044148331539932 2.3721644580944865 1.7398557958137877 30.348511853496625 -1 -1 0
19 2 -0.1234636714666651 1.9858733137241646 -1.9276251332517238 25.916786768153166 -1 0 0
14 1 -0.2018489277068235 -2.5096293077352296 2.8830307470852565 24.379999678226984 0 -1 0
15 3 0.1705690613225962 2.6441496345516136 2.334435032064582 23.98220386408877 -1 -1 0
34 3 0.1983510532387111 -1.6988282854525145 1.4428049027029468 31.19459886820743 0 -1 0
30 2 -0.1292353974405769 1.2802495022858058 2.5940647593405286 30.563818584872095 -1 -1 0
32 1 -0.1725433378327969 -2.614727462839095 1.8843033268996399 31.523177056602357 0 -1 0
38 1 -0.1731975541276946 -1.1090339415557808 -2.402021065452451 32.94339960167778 0 0 0
39 3 0.1892560012073897 -0.23863079282552446 -2.785125752684839 32.4459052947711 0 0 0
40 3 0.1950891764608099 -0.9231821683575465 -1.3494644628964498 32.988918656947284 0 0 0
41 1 0.08510010734581255 -1.092658481438535 -2.928754403867341 34.3771528881791 0 0 0
42 2 -0.1338735005200655 -2.302870925758815 -2.575887635451774 34.99751404415737 0 0 0
43 2 -0.1341038499691982 -1.044905509369099 1.6161262143566777 34.34932170852134 0 -1 0
44 1 -0.06160458311402263 0.15743991526242151 -2.378432773839386 35.222605651874304 0 0 0
45 3 0.1870264681500579 0.9632331731202148 2.8821590303678786 35.05951331092537 0 -1 0
46 2 -0.1312146490606947 0.5227563045527615 -1.0336588161380025 34.79175473363031 0 0 0
47 1 0.1074398244253256 -0.15194978567644135 -2.4110740878683 36.77021735586328 0 0 0
35 1 0.08545926868046116 -2.342101291027048 -2.593658574121936 31.971360494805428 0 0 0
36 2 -0.1273899389769809 -2.0907849958903166 -1.8347549274659147 30.845843137829927 0 0 0
33 3 0.191658453712662 2.9711362454699906 1.3207995253244755 32.35838215098208 -1 -1 0
37 2 -0.135415895563601 2.454405756689667 -2.08186557502981 32.53658921996588 -1 0 0
31 2 -0.1252669018103542 1.8737792011068537 0.44135041677500775 30.39673664886817 -1 -1 0
53 1 0.103765465519245 0.9250275917947346 -2.5871577643092816 39.199530939511114 0 0 0
54 2 -0.1310135277291371 -0.19964652774044245 -1.949593789373121 39.66778360392176 0 0 0
48 2 -0.1297179725684164 -1.054929766943406 -1.3780150295702598 37.09729787853886 0 0 0
56 1 -0.1820587066018465 2.1563827885328717 -2.079145138108956 40.00072155958126 0 0 0
57 3 0.1953933211156744 2.8937520818535543 -2.848984586339751 39.9096324006908 0 0 0
58 3 0.1835061122909614 2.5227042629526144 -1.1833182302242942 39.53303029752955 0 0 0
59 1 0.0878600562950099 1.9335351514186714 -1.8031723566035294 41.50007028169969 0 0 0
60 2 -0.1282278552739918 1.3639706200394226 -0.5231312833867872 41.66349399653787 0 0 0
61 2 -0.1257781560036707 1.0359932812288588 -2.7643884142693955 42.02142986176299 0 0 0
62 1 -0.04594286547029902 3.326157259469692 -1.9026738279840318 42.22947760077216 0 0 0
63 2 -0.1231280584247373 -2.1682862039273294 2.651931031825809 42.19899760250365 1 -1 0
64 3 0.1979190484016075 -1.9218887542275105 -1.3654505331983622 41.63119099037782 1 0 0
51 3 0.1886213453643363 1.8731743623661767 -2.8167369400674866 37.24816188823025 0 0 0
55 2 -0.1279657455474987 0.7487838131538211 1.9711726508070955 39.42343856421108 0 -1 0
52 3 0.1925678369581316 1.3526872503981782 -1.2069381727346788 37.62755615993526 0 0 0
50 1 -0.1849817240762711 1.0814304101117753 -2.2488927998000356 37.669431934998585 0 0 0
49 2 -0.1298439342665955 -0.7747326224128852 2.308421644406055 37.08928776161391 0 -1 0
76 3 0.204887474970856 3.2284191304227905 -2.1925078727524903 46.70219076235668 0 0 0
71 1 0.09281125470796477 2.1765495348396087 -0.49261275184929865 45.89592958446041 0 0 0
73 2 -0.1284105918586536 1.0253424874349317 0.23767175441607424 46.23175578385149 0 0 0
74 1 -0.1646555839984918 2.2881404242561194 -1.707411369767778 46.86060135433683 0 0 0
75 3 0.1939319876981099 1.551561398540911 -2.4039184775804876 46.542530216157736 0 0 0
72 2 -0.1270208339734064 3.2697387636559654 0.34855912690337565 46.08962763070743 0 0 0
77 1 0.102042351850211 2.1169909044734885 -1.4704385021677053 48.3801683727811 0 0 0
78 2 -0.1281749292922399 2.5202938210445467 -2.6501329981360366 49.03418479340509 0 0 0
79 2 -0.1307812833036708 2.9997916706494445 -0.4677493783014284 48.76280738710547 0 0 0
80 1 -0.04958675953446392 0.6687227264359992 -1.0701069102012455 48.861087309725626 0 0 0
81 3 0.1955978190882775 0.509711312856501 -0.020677585105243423 48.698291655761125 0 0 0
82 2 -0.129304338374591 -0.37550632061760947 -1.771681186354216 48.06054497952186 0 0 0
68 1 -0.1657153296683834 2.106309666642187 -0.8935020845635102 44.370152177408684 0 0 0
66 2 -0.1266410911062927 -1.9074137683516308 -2.2721233160550223 44.53505956171753 1 0 0
70 3 0.1993436628757958 1.340142075572151 -1.6369327261991586 44.21105092212668 0 0 0
69 3 0.2100457023747703 1.8164173350117245 -0.01367528749177982 43.820246313083224 0 0 0
65 1 0.09835039894391603 -2.5453424822269164 -1.3213907115137542 43.72144638971438 1 0 0
67 2 -0.1252406195343376 -1.7122000806630941 -0.2047921773635224 43.70782034193558 1 0 0
91 2 -0.1242465126545315 -1.9365966771470928 0.11070267127721678 52.91507848386104 0 0 0
88 3 0.212316081956731 -1.5341321473121028 -1.476183139347348 51.03684839342195 0 0 0
93 3 0.199639254373033 0.7666726306811342 -1.7671291370196875 53.12560862771619 0 0 0
92 1 -0.17537854219759 0.0045513289841982996 -1.192473025096506 53.58171484942942 0 0 0
89 1 0.1187166696292313 -0.6405933549133604 -0.21625297112468012 52.50963985852819 0 0 0
94 3 0.1924358980023749 0.5403917040929436 -0.6940399316882231 54.36858791389726 0 0 0
95 1 0.09387942150300796 -0.9565430364648793 -2.180771611761399 54.210597738509136 0 0 0
96 2 -0.1253654943681433 -2.2533561711597305 -2.3191578381546023 53.84358298402104 0 0 0
97 1 -0.09590484657762416 -0.36782259205280354 -2.8381276804600133 55.211603371058416 0 0 0
98 3 0.1780232956905382 0.655643575288019 -2.6177380847339147 55.403468230647135 0 0 0
99 1 0.1001600860062702 -0.8924450934046324 1.9538466273781951 56.01724110434816 0 -1 0
100 2 -0.1289144423732983 -2.2948340826346794 1.924390278524002 56.065323350025224 0 -1 0
101 2 -0.1328576540076414 -0.44329001822112346 0.7557692645913812 55.46318807707999 0 -1 0
90 2 -0.1247543669418804 0.09661077233867665 0.9663832859609758 52.50805360475212 0 0 0
86 1 -0.1629172909198867 -0.7391880544686815 -0.7423845594479719 51.05172750618553 0 0 0
84 2 -0.1251425083333423 0.4922942562392816 -2.7160039365293 50.63066643357176 0 0 0
85 2 -0.1281929137925456 1.6636076362281935 -0.8269592793805352 51.04045165502676 0 0 0
83 1 0.09491537076074914 0.5280603894124569 -1.3446646287722082 50.39714192612321 0 0 0
87 3 0.2011308485582856 -1.0485307348264148 0.06109726757546907 50.41820488315189 0 0 0
105 1 0.1030911580745441 -0.5725385156383349 -2.557342248533732 58.247469065455334 0 0 0
109 3 0.2002029035738464 -0.19257715991004742 2.484294719462259 60.17059182042394 0 -1 0
106 2 -0.1317030983748097 -0.11494175606412593 -1.4497700947452337 57.516616688157754 0 0 0
107 2 -0.1274619756985639 -1.9463034805797954 -2.420285748506697 58.44776100772252 0 0 0
110 3 0.1942460089439966 1.1504721965780558 -2.78000089972126 59.45258241847782 0 0 0
108 1 -0.1730725562566452 0.1264968041073531 -2.5951509839527254 59.63548927066469 0 0 0
111 1 0.1176116766586306 -0.05635543957390876 -1.3311940371735043 60.51935906496027 0 0 0
112 2 -0.131623041983314 -0.39172580083741737 -0.21610621396921914 59.74282350305417 0 0 0
113 2 -0.1290074743522922 -1.090479927206645 -1.5499814857607184 61.44135354607516 0 0 0
114 1 -0.05032417996589045 1.293528625793554 -1.0617420665450228 61.25939388183498 0 0 0
115 3 0.1893130962859721 1.3685335769846176 -1.8436155907847303 61.97731477446473 0 0 0
116 2 -0.1271196316872928 2.45928168848544 -1.2943628441679065 60.34067172950853 0 0 0
117 1 0.09892961274177234 1.4137312696648667 0.33162835273995084 61.99359873637256 0 0 0
118 2 -0.1272351813245263 2.4219886244520064 1.1050352561008925 61.38862075967275 0 0 0
119 2 -0.1316021741410398 0.23090739493860912 1.0616655183419024 61.88361498873303 0 0 0
104 3 0.1850023880155464 0.7934494859744299 1.9765219740597884 57.340083760027056 0 -1 0
103 3 0.2021216801459023 -0.5976969465492128 1.2474282449833165 58.021643577199484 0 -1 0
102 1 -0.1889232701345529 -0.26674149829686744 2.083872895653646 57.46789150773125 0 -1 0
120 1 -0.1702461970434171 1.7594164924078335 0.15221661614768545 63.486700552550104 0 0 0
121 3 0.1986667494714496 2.554355407058652 -0.5583808240164103 63.52380012901935 0 0 0
127 3 0.2053601245179857 0.38856986279188543 1.0156544134363297 66.09554500215499 0 0 0
122 3 0.202225924748938 2.164559311068512 1.0922860448704608 63.81584584488105 0 0 0
123 1 0.09476556504980355 0.6453543683035563 -0.3321025525898338 64.47022239420984 0 0 0
126 1 -0.1709346440216534 0.9295336832803791 0.09866880480207829 65.95460090276151 0 0 0
124 2 -0.1290344970716183 -0.5822270924051431 0.22725517307626308 64.09485026056835 0 0 0
128 3 0.2027491238473392 0.4421426479446975 -0.580482184001514 66.62544759146977 0 0 0
129 1 0.09837133500930656 2.349515191622891 0.25916174753464993 66.5183515881238 0 0 0
130 2 -0.1249354593628421 3.0334749314953005 -0.9722160899782823 66.37773869523492 0 0 0
131 2 -0.1272155051991703 3.064674889350802 1.2352522464623377 65.8027809826907 0 0 0
132 1 -0.04688176670562555 2.236283452526184 0.7209968543357572 68.02613245220836 0 0 0
133 2 -0.1247680103036466 1.6729651844763582 2.089632695305327 68.09047255831638 0 0 0
134 3 0.1908529990501014 1.5242902727669598 0.09889348409153831 68.53839822508192 0 0 0
135 1 0.1154837158768519 -2.297320659549524 0.710542656692398 68.70859012079826 1 0 0
136 2 -0.1283795785791605 -1.5120523359048363 -0.32646053470354186 68.20323156856782 1 0 0
137 2 -0.1255789706820818 -1.6234370013533557 1.9026013935369397 68.38620712472223 1 0 0
125 2 -0.1270821001752448 0.5125482771894783 -1.7404468412041618 64.37179781783269 0 0 0
138 1 -0.1834940187692616 -2.3610760100023636 0.602532243050161 70.23777172429348 1 0 0
144 1 -0.1641264910599226 3.3047007304299516 -0.8977210101634521 72.4361642391467 0 0 0
148 2 -0.1288185875307182 1.2397721181472674 -1.8630152451604196 73.17105457748272 0 0 0
141 1 0.0844093246789598 3.1513211281637146 -0.7637100536065473 70.8820798711316 0 0 0
155 2 -0.1302307151886351 2.1409439767616973 0.2919178203908954 75.0449619775326 0 0 0
145 3 0.1998071916932223 -1.6308181656736347 -0.9942436896213147 72.671699379455 1 0 0
146 3 0.19531132926546 2.99006974475863 0.042582491619496565 72.80925312763434 0 0 0
147 1 0.09936018857113582 2.61678818720997 -1.9948157376205078 73.2868953141454 0 0 0
139 3 0.1932033226606018 -1.36522235841096 0.8455543272250678 70.58666388192066 1 0 0
149 2 -0.1310502519097821 2.932468792987925 2.707739901737085 72.73746905777944 0 -1 0
150 1 -0.04095495578937138 2.998981964653326 -1.9918391991492888 74.81977568468298 0 0 0
151 3 0.2039010253372551 2.2949144251478364 -2.573356363485548 75.38572244004247 0 0 0
152 2 -0.1262711685364004 -1.767204348064709 -2.8465310511578137 75.08019960842697 1 0 0
153 1 0.08596534616882208 3.13532327683241 -0.5994235552449241 75.49925536471022 0 0 0
154 2 -0.1279485311674955 -1.5835180734472285 -0.035934398634828835 75.1863094638571 1 0 0
142 2 -0.1305650942226598 1.816632430480662 -0.9967003736143545 70.56484569505928 0 0 0
140 3 0.1938045741832423 2.9535659486160117 1.38572632090478 70.56806640772868 0 0 0
160 2 -0.1299710237083763 0.7844230602790017 -1.6026466130407697 76.50481549512605 0 0 0
143 2 -0.1293413546656874 -2.0892299073778213 -1.7672334219847419 70.27097614654411 1 0 0
159 1 0.08376741503490112 1.6778983374771297 -1.3971606103138623 77.5669996546338 0 0 0
162 1 -0.1735763141133726 1.0570341219171056 -0.4354190257486583 78.64677816352055 0 0 0
158 3 0.1846559821858131 3.19276173521087 0.1546595918700553 77.51537029131792 0 0 0
173 2 -0.1327476627730819 -0.8972956047218197 -2.216413422388274 82.45348682147431 0 0 0
156 1 -0.1814100820549626 3.0101552727013807 -0.7841052949535867 77.03631076616485 0 0 0
163 3 0.1765970493311069 1.8836440030284436 -0.020490072546767824 79.17710843154072 0 0 0
165 1 0.09072055516158491 0.03170738021524766 -0.7698654013181145 79.75594629486467 0 0 0
166 2 -0.1335864925195494 -0.9541137247035654 0.2382688886230513 79.74858824796841 0 0 0
167 2 -0.1303625079420891 -0.6229485355765907 -1.990622777344972 79.4830656234954 0 0 0
168 1 -0.05660913243717187 0.7049147653913272 -0.8258223549639347 81.1812028852842 0 0 0
169 2 -0.1301594790817052 1.8025195842169204 -1.795393247069849 81.21347673391712 0 0 0
170 3 0.1761470092101312 1.1879617956847937 0.1191441224195895 81.27447696572943 0 0 0
171 1 0.08121047360290028 -0.2366179426422037 -0.9734497735156242 82.46784934850822 0 0 0
164 3 0.1912609584715043 0.7026477417531791 0.40391693044914767 78.07412817119258 0 0 0
157 3 0.1999297282625767 -2.1760459031207002 -1.4284106829541572 77.37925908320997 1 0 0
161 2 -0.1299297046244177 1.943046620641403 -2.645056213888928 78.12276320682733 0 0 0
172 2 -0.1363876133407964 -1.2329780175440388 -0.0008270854783081205 82.43482546965545 0 0 0
176 3 0.1774343597414479 1.128782433271308 0.09752470661910717 83.76182367049542 0 0 0
177 1 0.1043869420995372 -0.4077218159528573 -0.6953066265122847 85.05741755246382 0 0 0
179 2 -0.1257431655756929 0.40609144086851634 -0.5020089639555905 86.14982732121645 0 0 0
180 1 -0.1713068468577296 -1.4471670970673516 0.44892112075562407 85.00333626956322 0 0 0
181 3 0.1970013718528757 -0.931202908394563 1.3759564126961896 84.83328380422195 0 0 0
182 3 0.1881481777751167 -2.065888238268501 0.27350673385025726 84.15512786377684 0 0 0
183 1 0.1052583725722244 -2.4100042327270073 0.5536425007187042 86.22828026316455 0 0 0
184 2 -0.1269638356981329 2.557789053254302 1.4675647508471616 85.90344587092915 -1 0 0
185 2 -0.1262762899050392 2.9406927655582855 -0.6777947834047939 86.44022981566577 -1 0 0
186 1 -0.01703418540471235 -1.7156636377175523 1.009939653312789 87.54722799003834 0 0 0
187 3 0.2108869414384286 -0.958848233137966 0.30654888114975964 87.79288122114356 0 0 0
188 2 -0.1183584640007816 -0.9466405212134548 2.2765097974930706 87.31412999017112 0 0 0
174 1 -0.1834534120644694 0.5249780091590233 -0.8117523704163072 83.78534582125931 0 0 0
178 2 -0.1286444310921218 -1.0998402986263953 -1.8881152301087278 85.27595052687177 0 0 0
175 3 0.1987294273007865 1.193907089827582 -1.645874179019727 83.92039788192024 0 0 0
191 2 -0.1191475530780593 2.035506465629913 1.2746501792503206 88.49641028231854 -1 0 0
189 1 0.1149200005518922 -2.6083962191754937 1.0845513324056837 88.84777949026818 0 0 0
194 3 0.2174781625681376 3.2591983339779276 -1.018764111157086 89.1187659669909 -1 0 0
192 1 -0.1793575362733427 -2.5218655871303706 -0.1789735675668318 89.76677250326202 0 0 0
196 2 -0.1212045365531862 -0.10117629567598296 -0.8702322145753572 89.82218666275368 0 0 0
190 2 -0.1215801336150792 -2.233809689064097 2.1792073778174927 89.61816108328982 0 0 0
215 2 -0.1307687501265066 2.2539966322899954 0.6808857504414041 96.5733970728341 -1 0 0
193 3 0.1987473972024396 2.716081164894854 -0.13535866714399525 90.57372474707981 -1 0 0
197 1 -0.08231678767413517 -1.0178791394822166 0.486515009758973 91.52923490925433 0 0 0
198 3 0.1885548178796689 -1.8307681584546127 1.0695259676175537 91.90004350868045 0 0 0
199 1 0.07870369112113358 0.26655172677165595 0.41540817883161507 92.27424386360146 0 0 0
200 2 -0.1318387814786624 0.6674933916898294 -0.9336660674099586 92.3523952246177 0 0 0
201 2 -0.1331142749972194 1.2412666068294254 1.0997966959713352 91.51321760923419 0 0 0
202 1 -0.1840793638598366 0.3183439579831506 0.998175663879477 93.7764757342689 0 0 0
203 3 0.1944634259551888 1.0560243220888066 0.44738224891614653 94.32666010730414 0 0 0
204 3 0.1852292960885957 0.6844074309489163 1.9896291498014893 93.68187168610822 0 0 0
205 1 0.07369028072043243 -0.9433890230185193 1.0497970319354453 94.6515953965056 0 0 0
206 2 -0.1339385595447292 -1.9221826035231309 1.7305231514118242 93.9421203957237 0 0 0
210 3 0.193929267676419 -0.168734790863601 2.6110323614397455 95.86599409940277 0 0 0
209 3 0.1940594250449365 -0.11279224833594137 1.1475622622542305 96.64040214796553 0 0 0
195 1 0.083123639705213 -1.1387330432181193 -0.20793725610540248 90.38909018600513 0 0 0
207 2 -0.1301452327417812 -1.3902913698467412 -0.2549592981530866 94.83878987851129 0 0 0
213 2 -0.1274864292744481 -2.556677031425495 -2.625518589191196 96.43266741068457 0 1 0
208 1 -0.1650469293628979 -0.7617505805293099 1.7549111793707564 96.06167642655836 0 0 0
225 2 -0.1340078230557533 -2.5040974453706286 -0.7226956397179012 99.9189351552857 0 0 0
226 1 -0.1813585502021908 -1.2619887455469083 0.2709246597412496 101.79916623868866 0 0 0
227 3 0.1957538649881837 -1.2281388570487974 -0.6060330275411729 102.41053381219821 0 0 0
214 1 -0.03792345875939734 3.141278336660566 1.2488783498853389 97.62737578043549 -1 0 0
233 3 0.1734605399374658 0.8202444565572509 0.822152498251699 103.18640267061652 0 0 0
216 3 0.1953035943911091 -2.2269320921852254 0.44369544695325924 97.94391537494766 0 0 0
217 1 0.09720785010791813 2.364118810788799 1.6809439967132933 98.94096109990289 -1 0 0
218 2 -0.1308468560585636 1.8818908178892464 -2.970869737905943 98.78647070533711 -1 1 0
219 2 -0.1333924271523388 1.2662266797752415 0.8409792533798899 99.10788696688691 -1 0 0
220 1 -0.1642479954402877 3.215253224889956 1.6514007643452455 100.23527139606777 -1 0 0
221 3 0.1938167751906674 -1.787218143324445 2.0309142403652167 100.0142048041897 0 0 0
222 3 0.1978378605927963 2.788948739194482 2.3335949069065904 100.95662626199142 -1 0 0
223 1 0.08653248227039018 -2.5719315542813415 0.2655282421777252 100.90333009833262 0 0 0
211 1 0.09137607965758572 -1.8409330810905942 2.294759596859195 97.04978604152527 0 0 0
224 2 -0.1381885341627899 2.2830282230182393 -0.021899034935803474 101.68063253866066 -1 0 0
229 1 0.07291918153746371 -1.1469751150674232 1.5091351449330261 102.6920287763409 0 0 0
212 2 -0.1313914145741644 -1.1747666174005118 2.863624033789061 98.14237885610174 0 0 0
228 3 0.1874215635671831 -0.3800920956175151 0.23664602799229106 101.17776479111279 0 0 0
230 2 -0.1379267165851887 -0.9616941603096372 2.6452283614585435 101.86999900293947 0 0 0
231 2 -0.137097544368197 -2.341814472432301 1.6811514363554068 103.41677714036423 0 0 0
246 3 0.1871587017186866 2.581804122650257 0.8645932359548767 107.74474186977032 0 0 0
245 3 0.2026462980340477 3.1721104060747685 -0.6705845332954454 107.33746731124806 0 0 0
243 2 -0.1252957021062541 0.875299168416038 -1.858327003956654 106.97192762087688 0 0 0
232 1 -0.05967883566569167 0.08096912197521666 1.3779371898165804 103.70812043702878 0 0 0
249 2 -0.1209384333037679 -2.1654958706292238 -1.0650897731074243 109.57874616302973 1 0 0
244 1 -0.1854452419615249 2.3865716584725654 -0.17519412935559187 107.87669895742168 0 0 0
235 1 0.09395769331075338 -0.23128412820347677 0.5981464171592656 105.01869725079534 0 0 0
236 2 -0.1300852573626379 -0.993286082551806 1.4180814494556957 105.86998534486796 0 0 0
237 2 -0.1351962732490979 -0.9703410802926453 -0.552427791381704 104.74105736869024 0 0 0
238 1 -0.1825096673601515 1.1049866894850222 0.2215680716494326 105.71098605057989 0 0 0
239 3 0.1876661743634351 1.6613861049173382 -0.39440572301707544 105.04786588712172 0 0 0
240 3 0.1875882512325455 1.6575256095007953 1.136472631249739 105.77562378673903 0 0 0
241 1 0.1135001538245546 1.0517117466199237 -0.4693355338108671 107.11147811576944 0 0 0
247 1 0.120426411462226 2.5364903696487078 -0.4981611519710776 109.37553835693937 0 0 0
252 3 0.1940198990390077 1.585391332191496 1.337673392217428 109.76605251766324 0 0 0
234 2 -0.1331185607154253 0.6523339743583683 2.7159457858439087 104.05469282573978 0 0 0
242 2 -0.1249335090862887 -0.02753677102233132 0.03165519054286259 107.83414250999806 0 0 0
248 2 -0.1243148637133619 1.5989979522159485 -1.4752721425886692 109.74169275512902 0 0 0
262 1 -0.1860176174765625 1.7505566228967844 -2.9035240194344696 114.74911037310041 0 1 0
261 2 -0.1287371475879066 0.7858720098379841 0.7777544168052848 114.37563429299173 0 0 0
263 3 0.1973827679630117 2.701516870141335 2.604923335495563 114.9617505021725 0 0 0
266 2 -0.1258640494965437 1.893718388270229 -1.3226792800357636 116.54190871721342 0 1 0
267 2 -0.1267545627288576 -0.17754133760290314 -1.974821343116957 115.86012305827556 0 1 0
265 1 0.1086735990048237 1.1452125849400607 -2.415822317183381 116.06688333721628 0 1 0
253 1 0.1105146670451705 1.8234343164640991 0.6078255939959769 111.75804414458088 0 0 0
254 2 -0.1248856708254526 0.553270894670558 0.011947070155419848 111.71788172292321 0 0 0
255 2 -0.1267011175902913 2.6648753251268777 -0.2453278805494019 112.48825034781318 0 0 0
256 1 -0.1740124360319556 1.7207121536302745 1.9614036696359163 112.50436657577119 0 0 0
257 3 0.1911495411132582 2.6810741230350414 2.384760197468796 112.74353088804682 0 0 0
258 3 0.2011841834894638 1.2844292939576358 2.6657897205012855 111.84887225789326 0 0 0
259 1 0.09536681595715951 0.9197514438927952 2.0450540582830756 113.82401175325454 0 0 0
264 3 0.1974654151148268 1.926589789550074 -2.0189448627609377 114.17551441032393 0 1 0
260 2 -0.1248961312338848 -0.35405096740735287 2.547005355073699 113.58523389462833 0 0 0
251 2 -0.1201194776637272 -2.3909579213524697 1.6186150311761862 110.29212583516464 1 0 0
250 1 -0.04906034417600398 2.3555998325057317 0.7988165294251375 110.2812259152643 0 0 0
269 3 0.1917893443561022 0.6033990314002775 1.5480155461740148 116.6454017005913 0 0 0
284 2 -0.1243063370101004 -2.626816356984235 -0.5001608560131094 121.9348912793076 0 0 0
282 3 0.1877477918577556 0.6766174154703601 0.18892528464755642 121.89508222333953 0 0 0
283 1 0.1008734341785624 -1.3846864591185153 -0.13650279065590487 122.34968842460954 0 0 0
268 1 -0.05616473843239943 1.1667664382407654 2.336537521130042 117.10131132511853 0 0 0
280 1 -0.1935859054339742 -0.25834786522155895 0.10883601751504202 121.38037635122946 0 0 0
270 2 -0.1247326728918796 2.5318307743919695 1.8497433528446923 117.29144530484879 0 0 0
271 1 0.1147638946614751 0.5162424599732445 2.725971346223851 118.50375444272014 0 0 0
272 2 -0.1260387933990657 1.3524332722547885 -2.3706354736105806 119.25501731599427 0 1 0
273 2 -0.1260091003295045 -0.7500974018360402 -2.62941739254863 118.39867296684774 0 1 0
274 1 -0.1792921056308714 0.4049812825014141 1.35834887794935 119.18050160214732 0 0 0
275 3 0.193894857447186 -0.015844560257361362 0.6901925081366254 118.4511456137753 0 0 0
276 3 0.2026329008500535 1.395831503952306 1.0269696746849073 119.4467959638013 0 0 0
277 1 0.1114666049045814 -0.509824568541835 1.375887710098973 120.42673705959236 0 0 0
279 2 -0.1236514803657311 -1.8372501682600295 1.3996491004839777 120.00200012900233 0 0 0
278 2 -0.1254262159503256 -0.28250137928831487 2.5486264023952225 121.13397665778278 0 0 0
281 3 0.2019552994462763 -0.1485832876497386 -0.7668702490559811 120.78949408778051 0 0 0
299 1 0.1244108954296929 -2.5012010985132824 1.8317893509858054 129.72705311720844 0 0 0
296 1 -0.1829833115042915 -1.7211767994974496 1.338482790904325 128.51964716723404 0 0 0
300 2 -0.1224833227320725 2.666618215125397 2.9167731068688987 129.34197501830897 -1 0 0
298 3 0.189217428215236 -1.3003870831309727 2.216433297810017 128.09016629518678 0 0 0
287 1 0.102083261112913 -2.1266371007162292 -0.029307443711068526 124.68793369974496 0 0 0
288 2 -0.1304738784188495 2.7639872209272056 0.8300698445399628 124.33816862407066 -1 0 0
289 2 -0.1284791810635623 -2.6192320100430933 -1.347465282214877 124.76377640393213 0 0 0
290 1 -0.1999008284062901 -1.4922240767808974 0.37846954152394074 126.12990416082353 0 0 0
291 3 0.1825580699314551 -0.7534197304739156 -0.36611532740974484 126.33583366230057 0 0 0
292 3 0.1757407840953946 -0.961918512496057 1.2995017417900403 126.05945259872048 0 0 0
293 1 0.1045446763234528 -2.440469478731159 0.5431934451995972 127.30996069465813 0 0 0
297 3 0.1927686540164348 -0.8986192467593614 0.7501872473029385 128.89314327572342 0 0 0
295 2 -0.1266860635811034 3.095064114527146 -0.712090071181164 127.74399693280682 -1 0 0
294 2 -0.129501985913364 2.398880389489266 1.248309753136887 126.88793278438497 -1 0 0
286 3 0.1768466939679013 -0.07186328262641695 0.23936544825852524 123.92738817092075 0 0 0
285 1 -0.1170268622692585 -1.0780926039657897 0.043550549685330786 123.64655425087352 0 0 0
313 2 -0.1274475415595455 2.7143350352364175 1.3571104279271156 134.66118317160937 -1 0 0
314 1 -0.1804571470096985 -1.988961400336418 2.7928524758163196 136.12054952820023 0 0 0
315 3 0.1870706108800258 -1.4106269118808148 -2.236337488709062 136.06217502528648 0 1 0
302 1 -0.0559942937709962 -1.5614339099449785 2.2379437301580145 130.9739594619826 0 0 0
303 3 0.1924897334904623 -1.0931691440744866 1.3178069168722963 131.2955846856346 0 0 0
304 2 -0.1186261611199577 -0.49234104419276514 -2.80139898569754 130.56037360473027 0 1 0
305 1 0.1280400027297705 -2.355451416796104 2.8657024777215954 132.17500272807214 0 0 0
306 2 -0.1201638769567872 -2.497261357245171 -1.6892997743636238 132.00328746178357 0 1 0
307 2 -0.1230079582112305 2.3271405509318095 2.3031697775314406 132.26722268722702 -1 0 0
308 1 -0.1806675629103041 -1.616970748799556 2.6534609059376573 133.5041138724058 0 0 0
309 3 0.1939739268613706 -1.0927830760287447 1.7300476375482603 133.43619644691364 0 0 0
310 3 0.1977573050701548 -0.9379366671542797 -2.461190704151044 133.64130400469094 0 1 0
311 1 0.1034036209308107 -2.6057994126788984 2.586133545727275 134.7101314685239 0 0 0
312 2 -0.1271399039452925 2.411576089594142 -2.368777328752629 134.5444474935044 -1 1 0
319 2 -0.1297433013216551 -0.13996676100540206 1.3396695328469015 135.70529356820097 0 0 0
301 2 -0.1197814752273882 2.604846731825649 0.8196354457198298 130.12588177738556 -1 0 0
317 1 0.09848282125202329 -1.084452914661571 1.669652197530712 136.67588464004098 0 0 0
331 2 -0.123209526909356 -0.44225021695770605 -1.3074546297167007 141.13104653727788 0 1 0
332 1 -0.1664899857477699 0.9173062356326902 -2.6181952036101603 142.5829193150797 0 1 0
318 2 -0.1246441445868987 -1.8497585342477274 0.5191277634693292 136.92679511955467 0 0 0
320 1 -0.04471939991649736 -0.3373438287560453 2.099290977243684 137.99776204977368 0 0 0
335 1 0.08134772299257582 1.7786271682578025 2.1164800297961532 142.90596704958807 0 0 0
322 3 0.1970812088652987 0.13974747396857667 -2.9077843611064322 137.8451206793452 0 1 0
323 1 0.1073311549014403 -1.2265742618428985 2.3613360529157337 139.2615437626108 0 0 0
324 2 -0.1214453809778746 -1.8078538466563003 -2.3165566119430627 139.09535735317644 0 1 0
325 2 -0.1216485348415623 -2.2524634817323133 1.4244656469746761 139.2996295552443 0 0 0
326 1 -0.1503033548530924 -0.48757574130774195 2.2851085771830633 140.62795851049938 0 0 0
327 3 0.2064645286325487 -1.1894046789313186 1.9929351605742438 141.38497559789013 0 0 0
328 3 0.2134786055511277 0.21678076992404272 1.4852620686647322 140.5291298489857 0 0 0
329 1 0.1075122986110428 0.35159048083171074 -2.444271821507569 141.12090840562752 0 1 0
330 2 -0.120350686107039 1.3946103917889898 -2.2222724730761687 140.20822126783426 0 1 0
336 2 -0.1315769271557423 1.0313121577604676 0.9323571893915572 142.7854291670515 0 0 0
316 3 0.2097059975625774 3.1775623891114364 -3.004167340490877 136.80666506322714 -1 1 0