 LAMMPS data file, charge style generated xyz_lammps.py by Wenchang Lu 

1128 atoms
3 atom types

0.000000   4.439390   xlo xhi 
0.000000   8.134501   ylo yhi 
0.000000   260.694251   zlo zhi 
0.000000   0.000000   0.000000  xy xz yz 

Masses

3  1.007940
1  12.010700
2  18.998404

Atoms # charge

1 1 0.0 -0.138114 -0.037680 -6.263362 
2 2 0.0 -1.020275 1.024517 -6.223969 
3 1 0.0 0.675236 -0.038228 -4.929220 
4 3 0.0 1.398596 -0.902610 -4.896366 
5 1 0.0 -0.121652 -0.129459 -3.621175 
6 2 0.0 -1.013503 0.968925 -3.567991 
7 2 0.0 -0.891025 -1.270171 -3.724825 
8 1 0.0 0.651222 -0.179516 -2.226375 
9 3 0.0 1.282969 -1.045230 -2.201911 
10 3 0.0 1.290553 0.632793 -2.175858 
11 1 0.0 -0.151876 -0.285030 -0.897338 
12 2 0.0 -0.991155 0.771856 -0.898595 
13 2 0.0 -1.032892 -1.390203 -0.947383 
14 1 0.0 0.587357 -0.350612 0.499901 
15 3 0.0 1.235320 -1.196028 0.463387 
16 3 0.0 1.275587 0.477244 0.462954 
17 1 0.0 -0.174707 -0.265686 1.858352 
18 2 0.0 -1.017728 0.831689 1.760896 
19 2 0.0 -1.016936 -1.356430 1.893380 
20 1 0.0 0.642535 -0.188081 3.202914 
21 3 0.0 1.437620 -0.879720 3.124906 
22 3 0.0 1.140644 0.735337 3.176444 
23 1 0.0 -0.140944 -0.348194 4.505359 
24 2 0.0 -1.178528 0.583841 4.549697 
25 2 0.0 -0.733052 -1.591829 4.467420 
26 1 0.0 0.701538 -0.190452 5.841068 
27 2 0.0 1.789666 -1.111064 5.964403 
28 3 0.0 1.150251 0.796469 5.770237 
29 1 0.0 -0.092186 -0.165848 7.265274 
30 2 0.0 -1.139089 0.691616 7.263040 
31 2 0.0 -0.702738 -1.399475 7.354804 
32 1 0.0 0.699559 -0.035830 8.551095 
33 3 0.0 1.462798 -0.759303 8.500561 
34 3 0.0 1.203084 0.878708 8.521734 
35 1 0.0 -0.043654 -0.153186 9.940627 
36 2 0.0 -1.008129 0.820446 10.001048 
37 2 0.0 -0.679204 -1.406831 9.924705 
38 1 0.0 0.754169 -0.074087 11.276194 
39 3 0.0 1.488015 -0.880443 11.279398 
40 3 0.0 1.397140 0.739879 11.241570 
41 1 0.0 -0.011345 0.053526 12.648548 
42 2 0.0 -0.630603 1.305452 12.618109 
43 2 0.0 -1.020643 -0.900226 12.594144 
44 1 0.0 0.808822 -0.095477 13.967378 
45 3 0.0 1.261045 -1.005123 13.960062 
46 2 0.0 1.937676 0.835981 13.973275 
47 1 0.0 0.042547 -0.085754 15.432404 
48 2 0.0 -0.705922 1.094193 15.496985 
49 2 0.0 -0.872766 -1.139526 15.441335 
50 1 0.0 0.778787 -0.236118 16.747214 
51 3 0.0 1.368918 -1.182415 16.737730 
52 3 0.0 1.500751 0.514272 16.648363 
53 1 0.0 -0.062394 -0.096054 18.094123 
54 2 0.0 -0.821075 1.073865 17.988389 
55 2 0.0 -1.017720 -1.162098 18.194543 
56 1 0.0 0.729766 -0.047321 19.465370 
57 3 0.0 1.450093 -0.825451 19.433541 
58 3 0.0 1.236127 0.895975 19.538694 
59 1 0.0 -0.119697 -0.144208 20.769464 
60 2 0.0 -1.103055 0.817651 20.739932 
61 2 0.0 -0.784340 -1.396666 20.756851 
62 1 0.0 0.606181 -0.088982 22.167692 
63 2 0.0 1.704002 -1.156070 22.098477 
64 3 0.0 1.129178 0.795204 22.122984 
65 1 0.0 -0.109826 -0.216217 23.572678 
66 2 0.0 -1.118512 0.753536 23.601922 
67 2 0.0 -0.783318 -1.446847 23.604732 
68 1 0.0 0.676707 0.000775 24.918503 
69 3 0.0 1.430757 -0.781758 24.911501 
70 3 0.0 1.075097 0.972378 24.953170 
71 1 0.0 -0.165323 -0.046062 26.237713 
72 2 0.0 -1.128070 0.962069 26.230107 
73 2 0.0 -0.936051 -1.215762 26.261016 
74 1 0.0 0.618547 -0.039110 27.643423 
75 3 0.0 1.276356 -0.862786 27.793026 
76 3 0.0 1.238705 0.837266 27.669583 
77 1 0.0 -0.106750 0.121962 28.978676 
78 2 0.0 -0.655415 1.450712 28.921822 
79 2 0.0 -1.214496 -0.777359 28.947210 
80 1 0.0 0.632975 -0.096226 30.351508 
81 3 0.0 1.152697 -1.009715 30.348122 
82 2 0.0 1.751677 0.797724 30.408570 
83 1 0.0 -0.103275 -0.004781 31.819920 
84 2 0.0 -0.676963 1.228617 31.948988 
85 2 0.0 -1.183281 -0.918393 31.824012 
86 1 0.0 0.717973 -0.214191 33.063443 
87 3 0.0 1.235511 -1.137504 32.975646 
88 3 0.0 1.552120 0.462926 33.010720 
89 1 0.0 -0.002252 -0.097756 34.479058 
90 2 0.0 -0.834784 1.040573 34.436344 
91 2 0.0 -0.902732 -1.205607 34.531138 
92 1 0.0 0.757173 -0.038919 35.863380 
93 3 0.0 1.561402 -0.745574 35.860102 
94 3 0.0 1.148276 0.933031 35.850602 
95 1 0.0 -0.041018 -0.207735 37.173459 
96 2 0.0 -1.139418 0.673545 37.173910 
97 1 0.0 0.767283 -0.012756 38.524417 
98 2 0.0 1.886863 -0.987697 38.526949 
99 1 0.0 -0.002690 -0.180105 39.926786 
100 2 0.0 -1.049809 0.735153 39.976370 
101 2 0.0 -0.569664 -1.414917 40.039341 
102 1 0.0 0.801150 0.045117 41.207672 
103 3 0.0 1.460133 -0.744057 41.215753 
104 3 0.0 1.312060 0.939667 41.009156 
105 1 0.0 -0.057710 -0.056570 42.571077 
106 2 0.0 -0.928129 1.047185 42.597475 
107 2 0.0 -0.829830 -1.251192 42.573785 
108 1 0.0 0.774767 0.008627 43.908606 
109 3 0.0 1.530119 -0.764954 43.994705 
110 3 0.0 1.350599 0.904967 43.900992 
111 1 0.0 0.003417 -0.028739 45.222715 
112 2 0.0 -0.737382 1.125004 45.199854 
113 2 0.0 -0.873848 -1.054483 45.128552 
114 1 0.0 0.729637 -0.034048 46.693369 
115 3 0.0 1.263711 -0.953201 46.726868 
116 2 0.0 1.846640 0.879076 46.751829 
117 1 0.0 -0.020636 0.051344 48.083221 
118 2 0.0 -0.561427 1.286691 48.235665 
119 2 0.0 -1.095721 -0.843237 48.046581 
120 1 0.0 0.778439 -0.217996 49.398887 
121 3 0.0 1.180600 -1.238217 49.319554 
122 3 0.0 1.616229 0.482000 49.367362 
123 1 0.0 0.074833 -0.147871 50.778604 
124 2 0.0 -0.728184 0.994880 50.752465 
125 2 0.0 -0.751190 -1.260986 50.818777 
126 1 0.0 0.851398 -0.010517 52.184930 
127 3 0.0 1.652092 -0.695396 52.187476 
128 3 0.0 1.265415 0.947683 52.129700 
129 1 0.0 0.141724 -0.145795 53.516370 
130 2 0.0 -0.894736 0.764975 53.464920 
131 2 0.0 -0.474555 -1.390077 53.414146 
132 1 0.0 0.911030 -0.091817 54.893026 
133 2 0.0 1.903405 -1.159535 54.932025 
134 3 0.0 1.448287 0.816624 54.915888 
135 1 0.0 0.042541 -0.222546 56.271365 
136 2 0.0 -0.994639 0.717189 56.247950 
137 2 0.0 -0.514690 -1.485901 56.310373 
138 1 0.0 0.813915 -0.071487 57.562553 
139 3 0.0 1.647853 -0.723127 57.642281 
140 3 0.0 1.151270 0.910953 57.514494 
141 1 0.0 0.046202 -0.152346 59.012835 
142 2 0.0 -0.937511 0.879265 59.025681 
143 2 0.0 -0.702313 -1.354786 59.057314 
144 1 0.0 0.861693 -0.111812 60.307864 
145 3 0.0 1.438686 -0.994398 60.444993 
146 3 0.0 1.458823 0.767020 60.208138 
147 1 0.0 -0.034053 -0.156055 61.607756 
148 2 0.0 -0.898225 0.962690 61.577394 
149 2 0.0 -0.881607 -1.251092 61.563208 
150 1 0.0 0.682595 -0.139399 62.993487 
151 3 0.0 1.301171 -1.004853 63.074847 
152 3 0.0 1.370732 0.674606 63.050732 
153 1 0.0 -0.151700 -0.019277 64.303032 
154 2 0.0 -0.860572 1.138026 64.244239 
155 2 0.0 -1.050833 -1.095620 64.350040 
156 1 0.0 0.659938 -0.070056 65.647751 
157 3 0.0 1.343159 -0.949397 65.660683 
158 3 0.0 1.345643 0.740433 65.682156 
159 1 0.0 -0.125598 -0.125675 66.922211 
160 2 0.0 -1.113723 0.862584 66.880376 
161 2 0.0 -0.777752 -1.350559 67.009226 
162 1 0.0 0.655884 0.083358 68.370736 
163 3 0.0 1.535335 -0.512687 68.351886 
164 3 0.0 1.041065 1.070786 68.367117 
165 1 0.0 -0.001080 -0.118828 69.707745 
166 2 0.0 -1.007375 0.839536 69.817682 
167 2 0.0 -0.626048 -1.345691 69.627154 
168 1 0.0 0.836551 -0.041410 71.105255 
169 2 0.0 1.824541 -1.017588 71.084954 
170 3 0.0 1.296744 0.900360 71.145970 
171 1 0.0 0.009542 -0.166493 72.448566 
172 2 0.0 -0.983006 0.859008 72.568298 
173 2 0.0 -0.732342 -1.357754 72.457824 
174 1 0.0 0.854767 -0.209956 73.699546 
175 3 0.0 1.314392 -1.154862 73.580427 
176 3 0.0 1.662767 0.547936 73.700311 
177 1 0.0 0.000396 -0.126445 75.112839 
178 2 0.0 -0.700600 1.061493 75.052564 
179 2 0.0 -0.880150 -1.169017 75.059698 
180 1 0.0 0.747484 -0.112836 76.485115 
181 3 0.0 1.356499 -0.962146 76.557187 
182 3 0.0 1.389972 0.730734 76.541292 
183 1 0.0 -0.008111 -0.071688 77.828711 
184 2 0.0 -0.846583 1.050025 77.772401 
185 2 0.0 -0.826110 -1.152786 77.844538 
186 1 0.0 0.778920 0.023797 79.214941 
187 3 0.0 1.546857 -0.750214 79.348007 
188 2 0.0 1.702014 1.207588 79.220648 
189 1 0.0 -0.017910 0.065291 80.583430 
190 2 0.0 -0.658807 1.263186 80.621656 
191 1 0.0 0.647044 0.022665 81.969498 
192 3 0.0 1.351037 -0.794247 81.947920 
193 1 0.0 -0.214642 -0.126140 83.242085 
194 2 0.0 -1.137348 0.929416 83.194619 
195 2 0.0 -0.987969 -1.296719 83.236136 
196 1 0.0 0.533319 0.013366 84.687597 
197 3 0.0 1.305204 -0.735082 84.708081 
198 3 0.0 1.080497 0.866984 84.783317 
199 1 0.0 -0.202974 -0.212845 85.992709 
200 2 0.0 -1.195053 0.796060 86.039379 
201 2 0.0 -0.859107 -1.386243 85.936727 
202 1 0.0 0.646657 -0.106934 87.378565 
203 2 0.0 1.752665 -1.130017 87.348604 
204 3 0.0 1.072029 0.877454 87.295584 
205 1 0.0 -0.056118 -0.193626 88.762760 
206 2 0.0 -1.022313 0.820730 88.816877 
207 2 0.0 -0.748672 -1.407946 88.829788 
208 1 0.0 0.766389 -0.088524 90.120923 
209 3 0.0 1.533260 -0.918499 90.196258 
210 3 0.0 1.460108 0.650792 90.018031 
211 1 0.0 -0.041933 -0.039294 91.484090 
212 2 0.0 -0.842966 1.100432 91.499551 
213 2 0.0 -0.831946 -1.170805 91.515236 
214 1 0.0 0.725489 -0.011469 92.886539 
215 3 0.0 1.283607 -0.861687 92.950199 
216 3 0.0 1.328187 0.869290 92.943669 
217 1 0.0 -0.158551 0.062044 94.118555 
218 2 0.0 -0.829841 1.295565 94.039943 
219 2 0.0 -1.092087 -0.957555 94.065893 
220 1 0.0 0.563734 -0.066149 95.522338 
221 3 0.0 1.174972 -1.017785 95.520626 
222 2 0.0 1.663125 0.893979 95.581347 
223 1 0.0 -0.219716 0.000101 96.930371 
224 2 0.0 -0.932134 1.208809 97.024382 
225 2 0.0 -1.157643 -1.032808 97.001170 
226 1 0.0 0.651351 -0.054671 98.152729 
227 3 0.0 1.201841 -0.989785 98.110051 
228 3 0.0 1.365810 0.711667 98.122271 
229 1 0.0 -0.030182 0.008936 99.600552 
230 2 0.0 -0.843135 1.124329 99.579243 
231 2 0.0 -0.940570 -1.078270 99.700064 
232 1 0.0 0.723588 0.088378 100.938583 
233 3 0.0 1.456203 -0.668680 100.862130 
234 3 0.0 1.152887 1.073650 101.082056 
235 1 0.0 -0.101164 -0.196729 102.226117 
236 2 0.0 -1.130150 0.699829 102.199607 
237 2 0.0 -0.626342 -1.400826 102.085516 
238 1 0.0 0.604859 -0.066348 103.639280 
239 2 0.0 1.732145 -1.074394 103.687843 
240 3 0.0 1.123103 0.837659 103.674020 
241 1 0.0 -0.204115 -0.130695 105.029179 
242 2 0.0 -1.137484 0.908258 105.054121 
243 2 0.0 -0.859968 -1.318396 105.049050 
244 1 0.0 0.545302 -0.050227 106.380278 
245 3 0.0 1.166635 -0.891735 106.400184 
246 3 0.0 1.207390 0.788507 106.269005 
247 1 0.0 -0.205025 -0.029846 107.766684 
248 2 0.0 -1.090935 1.076924 107.887502 
249 2 0.0 -1.037107 -1.177739 107.776730 
250 1 0.0 0.631584 -0.023177 109.123434 
251 3 0.0 1.359902 -0.871716 109.131194 
252 3 0.0 1.219179 0.864526 109.077494 
253 1 0.0 -0.188600 0.016809 110.414771 
254 2 0.0 -0.844111 1.214169 110.407355 
255 2 0.0 -1.090260 -0.998703 110.313526 
256 1 0.0 0.653946 -0.043044 111.826688 
257 3 0.0 0.960641 -1.048073 111.833553 
258 2 0.0 1.744478 0.776462 111.814666 
259 1 0.0 -0.108193 0.137967 113.219335 
260 2 0.0 -0.753392 1.390632 113.166013 
261 2 0.0 -1.103091 -0.843648 113.317427 
262 1 0.0 0.607745 0.201222 114.535961 
263 3 0.0 1.368482 -0.566587 114.527429 
264 3 0.0 1.135913 1.128425 114.579326 
265 1 0.0 -0.193240 0.117779 115.910611 
266 2 0.0 -1.104914 1.199183 115.935441 
267 2 0.0 -0.937484 -1.020983 115.946447 
268 1 0.0 0.674825 0.165554 117.264473 
269 3 0.0 1.429051 -0.578548 117.134950 
270 3 0.0 1.167502 1.096223 117.414331 
271 1 0.0 0.044596 -0.063509 118.639663 
272 2 0.0 -1.034598 0.821744 118.696079 
273 2 0.0 -0.523306 -1.358659 118.565410 
274 1 0.0 0.898218 -0.000709 119.988187 
275 2 0.0 1.929726 -1.078155 120.037034 
276 3 0.0 1.447136 0.935726 119.908344 
277 1 0.0 0.124468 -0.093613 121.402409 
278 2 0.0 -0.867587 0.862596 121.353620 
279 2 0.0 -0.508968 -1.315267 121.381103 
280 1 0.0 0.854311 -0.012974 122.752241 
281 3 0.0 1.509127 -0.829565 122.847384 
282 3 0.0 1.527819 0.840200 122.746160 
283 1 0.0 0.023467 -0.005126 124.082575 
284 2 0.0 -0.648454 1.202210 124.128093 
285 1 0.0 0.810757 -0.077262 125.431471 
286 3 0.0 1.379202 -0.968002 125.370724 
287 1 0.0 -0.072748 -0.052478 126.764992 
288 2 0.0 -0.912256 1.054659 126.716494 
289 2 0.0 -0.855424 -1.245539 126.759305 
290 1 0.0 0.802645 -0.025229 128.043170 
291 3 0.0 1.409261 -0.883611 127.948430 
292 3 0.0 1.440774 0.825221 127.991175 
293 1 0.0 -0.012508 0.033456 129.385660 
294 2 0.0 -0.797577 1.121605 129.375891 
295 2 0.0 -0.862721 -1.104251 129.345791 
296 1 0.0 0.767314 0.085983 130.722078 
297 3 0.0 1.550146 -0.623916 130.753631 
298 3 0.0 1.228131 1.034184 130.819832 
299 1 0.0 -0.012434 -0.065213 132.103264 
300 2 0.0 -1.054158 0.933497 132.088834 
301 2 0.0 -0.738899 -1.270393 132.052326 
302 1 0.0 0.732748 0.014056 133.498285 
303 3 0.0 1.504581 -0.723256 133.536293 
304 3 0.0 1.205258 1.011148 133.508553 
305 1 0.0 -0.081448 -0.188185 134.811745 
306 2 0.0 -1.141459 0.707136 134.847356 
307 2 0.0 -0.665891 -1.454180 134.783620 
308 1 0.0 0.710468 -0.066312 136.159796 
309 2 0.0 1.868488 -0.973897 136.146261 
310 3 0.0 1.184012 0.882876 136.088877 
311 1 0.0 -0.072956 -0.145483 137.589183 
312 2 0.0 -1.083112 0.775703 137.502451 
313 2 0.0 -0.711150 -1.390490 137.634464 
314 1 0.0 0.596853 0.078445 138.959411 
315 3 0.0 1.399276 -0.582002 138.918431 
316 3 0.0 1.055637 1.085225 138.976131 
317 1 0.0 -0.126389 -0.010809 140.327389 
318 2 0.0 -1.111092 0.990286 140.446824 
319 2 0.0 -0.816128 -1.183878 140.357415 
320 1 0.0 0.693693 0.070534 141.696304 
321 3 0.0 1.266861 -0.915023 141.606454 
322 3 0.0 1.373161 0.921224 141.695816 
323 1 0.0 -0.044304 0.046473 143.024675 
324 2 0.0 -0.780923 1.263155 143.108542 
325 2 0.0 -0.982785 -0.934822 142.932934 
326 1 0.0 0.686026 -0.035407 144.461028 
327 3 0.0 1.184793 -0.982790 144.368729 
328 2 0.0 1.849802 0.910002 144.541630 
329 1 0.0 -0.078533 -0.050154 145.815980 
330 2 0.0 -0.765604 1.153641 145.906639 
331 2 0.0 -1.011142 -1.032524 145.823714 
332 1 0.0 0.721457 -0.203226 147.156146 
333 3 0.0 1.254772 -1.111122 147.120900 
334 3 0.0 1.404958 0.565510 147.155913 
335 1 0.0 -0.137183 -0.101186 148.482902 
336 2 0.0 -0.911247 1.036440 148.412527 
337 2 0.0 -0.992780 -1.166464 148.513396 
338 1 0.0 0.676802 -0.062051 149.812151 
339 3 0.0 1.282558 -0.946967 149.870857 
340 3 0.0 1.321219 0.776952 149.872376 
341 1 0.0 -0.160484 -0.191202 151.132229 
342 2 0.0 -1.073217 0.840242 151.178566 
343 2 0.0 -0.900665 -1.395069 151.044730 
344 1 0.0 0.590311 -0.187329 152.544505 
345 2 0.0 1.595052 -1.281741 152.590414 
346 3 0.0 1.305768 0.618920 152.601890 
347 1 0.0 -0.159391 -0.157544 153.954509 
348 2 0.0 -1.072671 0.909523 153.896251 
349 2 0.0 -0.852439 -1.341097 154.051334 
350 1 0.0 0.684849 -0.086447 155.273224 
351 3 0.0 1.302646 -0.958830 155.272019 
352 3 0.0 1.404690 0.686625 155.212104 
353 1 0.0 -0.116601 -0.103176 156.638598 
354 2 0.0 -0.924021 0.956602 156.715994 
355 2 0.0 -0.930533 -1.211313 156.613827 
356 1 0.0 0.707360 -0.171682 157.983789 
357 3 0.0 1.182648 -1.139863 158.003550 
358 3 0.0 1.481681 0.584175 157.921063 
359 1 0.0 -0.002267 0.084507 159.300125 
360 2 0.0 -0.597170 1.361629 159.154665 
361 2 0.0 -1.037921 -0.864382 159.400686 
362 1 0.0 0.775133 0.070517 160.730413 
363 3 0.0 1.267172 -0.853268 160.842471 
364 2 0.0 1.686945 1.200365 160.716823 
365 1 0.0 -0.055337 0.106649 162.075988 
366 2 0.0 -0.555672 1.406760 162.196352 
367 2 0.0 -1.141528 -0.716484 162.042789 
368 1 0.0 0.745398 -0.134516 163.374882 
369 3 0.0 1.322450 -1.030874 163.335148 
370 3 0.0 1.507279 0.602634 163.496165 
371 1 0.0 -0.071885 -0.222676 164.756517 
372 2 0.0 -0.958587 0.778507 164.766079 
373 2 0.0 -0.757864 -1.428828 164.687545 
374 1 0.0 0.716707 -0.132583 166.057806 
375 3 0.0 1.427818 -0.939177 166.106981 
376 3 0.0 1.228722 0.768267 165.953452 
377 1 0.0 0.026623 -0.195479 167.465620 
378 2 0.0 -0.970602 0.750653 167.356712 
379 1 0.0 0.845183 -0.080814 168.851611 
380 2 0.0 1.880472 -1.108565 168.807696 
381 1 0.0 0.055677 -0.211485 170.230161 
382 2 0.0 -0.858543 0.820213 170.306871 
383 2 0.0 -0.681253 -1.428235 170.208471 
384 1 0.0 0.819593 -0.225640 171.550241 
385 3 0.0 1.403267 -1.105197 171.578817 
386 3 0.0 1.549891 0.574021 171.599521 
387 1 0.0 -0.019532 -0.101998 172.919199 
388 2 0.0 -0.770314 1.102739 173.009394 
389 2 0.0 -0.923941 -1.183229 172.969278 
390 1 0.0 0.741676 -0.169078 174.254006 
391 3 0.0 1.332024 -1.065832 174.293599 
392 3 0.0 1.444996 0.652220 174.338935 
393 1 0.0 -0.027394 -0.022817 175.605367 
394 2 0.0 -0.611701 1.205420 175.593091 
395 2 0.0 -1.087940 -0.999296 175.616535 
396 1 0.0 0.751387 -0.152960 176.976834 
397 3 0.0 1.171792 -1.089979 177.011302 
398 2 0.0 1.891024 0.751257 176.983314 
399 1 0.0 -0.115751 -0.016306 178.343529 
400 2 0.0 -0.761885 1.193601 178.366680 
401 2 0.0 -1.089224 -0.993520 178.372959 
402 1 0.0 0.625097 -0.138412 179.676832 
403 3 0.0 1.273910 -0.952799 179.567816 
404 3 0.0 1.243608 0.710566 179.668981 
405 1 0.0 -0.173676 -0.162894 181.050502 
406 2 0.0 -1.009707 0.919549 181.046652 
407 2 0.0 -0.998250 -1.286164 181.003280 
408 1 0.0 0.618182 -0.072576 182.410406 
409 3 0.0 1.415325 -0.828079 182.367996 
410 3 0.0 1.178145 0.881543 182.426306 
411 1 0.0 -0.109163 -0.242604 183.718157 
412 2 0.0 -1.209135 0.645535 183.678516 
413 2 0.0 -0.613694 -1.508018 183.712600 
414 1 0.0 0.718702 -0.063453 185.077397 
415 2 0.0 1.876499 -0.904803 185.062138 
416 3 0.0 1.086449 0.895605 185.072605 
417 1 0.0 -0.024718 -0.234870 186.509417 
418 2 0.0 -1.070572 0.629777 186.560607 
419 2 0.0 -0.617610 -1.464074 186.554983 
420 1 0.0 0.727772 -0.109465 187.839728 
421 3 0.0 1.378162 -0.912878 187.785877 
422 3 0.0 1.276562 0.803456 187.805521 
423 1 0.0 -0.059832 -0.095378 189.256603 
424 2 0.0 -0.861950 1.028598 189.310515 
425 2 0.0 -0.970142 -1.167005 189.237551 
426 1 0.0 0.751039 -0.089162 190.588673 
427 3 0.0 1.421232 -0.886131 190.561379 
428 3 0.0 1.376776 0.778747 190.531047 
429 1 0.0 -0.078276 -0.138776 191.943407 
430 2 0.0 -1.066527 0.909372 191.937792 
431 2 0.0 -0.710936 -1.334845 191.975236 
432 1 0.0 0.776362 -0.050913 193.269737 
433 3 0.0 1.507401 -0.806418 193.274676 
434 3 0.0 1.274465 0.909326 193.285656 
435 1 0.0 0.012832 -0.086202 194.629431 
436 2 0.0 -0.859895 0.995125 194.555338 
437 2 0.0 -0.793607 -1.217862 194.666759 
438 1 0.0 0.779068 -0.035392 196.011561 
439 3 0.0 1.337939 -0.913074 196.153747 
440 3 0.0 1.538288 0.717509 195.890171 
441 1 0.0 0.007660 0.072472 197.364554 
442 2 0.0 -0.677941 1.312378 197.351173 
443 2 0.0 -0.981708 -0.954497 197.353271 
444 1 0.0 0.872211 -0.036996 198.687970 
445 3 0.0 1.522790 -0.878395 198.701821 
446 3 0.0 1.473247 0.842790 198.786476 
447 1 0.0 0.069987 -0.192610 199.966060 
448 2 0.0 -0.923308 0.771149 199.962988 
449 2 0.0 -0.544009 -1.432164 199.850940 
450 1 0.0 0.798193 -0.147204 201.376697 
451 2 0.0 1.814992 -1.162480 201.407284 
452 3 0.0 1.311188 0.760469 201.410036 
453 1 0.0 0.025081 -0.217854 202.816159 
454 2 0.0 -1.003730 0.756231 202.819212 
455 2 0.0 -0.643989 -1.434821 202.895970 
456 1 0.0 0.787305 -0.070259 204.194803 
457 3 0.0 1.413831 -0.932926 204.300647 
458 3 0.0 1.437709 0.745890 204.112366 
459 1 0.0 -0.047892 0.137463 205.548276 
460 2 0.0 -0.677638 1.341717 205.537550 
461 2 0.0 -0.996937 -0.836990 205.499303 
462 1 0.0 0.734472 0.004252 206.927380 
463 3 0.0 1.294115 -0.887704 206.982438 
464 3 0.0 1.453626 0.830067 206.913096 
465 1 0.0 -0.070221 0.040272 208.225189 
466 2 0.0 -0.697678 1.312151 208.202215 
467 2 0.0 -1.093476 -0.985515 208.102423 
468 1 0.0 0.709114 -0.046489 209.594031 
469 3 0.0 1.207396 -0.943372 209.629087 
470 2 0.0 1.816491 0.929075 209.529507 
471 1 0.0 -0.036770 0.090231 211.013968 
472 2 0.0 -0.745841 1.245650 211.113888 
473 1 0.0 0.809379 -0.092132 212.327523 
474 3 0.0 1.313873 -1.017705 212.159754 
475 1 0.0 -0.002475 -0.103431 213.661137 
476 2 0.0 -0.746249 1.016383 213.616899 
477 2 0.0 -0.867756 -1.204878 213.650792 
478 1 0.0 0.710792 -0.183997 215.065407 
479 3 0.0 1.316095 -1.061536 214.970095 
480 3 0.0 1.296054 0.688817 215.210994 
481 1 0.0 -0.145673 -0.247186 216.315670 
482 2 0.0 -1.055475 0.827129 216.356936 
483 2 0.0 -0.904157 -1.403519 216.267013 
484 1 0.0 0.682396 -0.184005 217.801649 
485 2 0.0 1.636391 -1.270749 217.779962 
486 3 0.0 1.321344 0.660999 217.663604 
487 1 0.0 -0.066912 -0.145802 219.144793 
488 2 0.0 -0.969551 0.941223 219.120807 
489 2 0.0 -0.868027 -1.300668 219.219364 
490 1 0.0 0.710228 -0.065012 220.472702 
491 3 0.0 1.319231 -0.973021 220.489946 
492 3 0.0 1.423207 0.764635 220.410769 
493 1 0.0 -0.101876 -0.046827 221.823072 
494 2 0.0 -0.855424 1.131660 221.858384 
495 2 0.0 -0.978060 -1.122758 221.833969 
496 1 0.0 0.683101 -0.043344 223.170819 
497 3 0.0 1.208024 -1.024316 223.096718 
498 3 0.0 1.400782 0.750258 223.191174 
499 1 0.0 -0.004146 0.097830 224.527060 
500 2 0.0 -0.600609 1.329463 224.446431 
501 2 0.0 -1.002591 -0.852248 224.573405 
502 1 0.0 0.853022 0.024352 225.888209 
503 3 0.0 1.465455 -0.905958 225.906924 
504 2 0.0 1.853068 0.990047 225.906349 
505 1 0.0 0.015828 0.137193 227.246185 
506 2 0.0 -0.658209 1.386637 227.209243 
507 2 0.0 -1.033727 -0.820072 227.325678 
508 1 0.0 0.825645 0.013781 228.528633 
509 3 0.0 1.294926 -1.005187 228.565951 
510 3 0.0 1.597848 0.759983 228.550576 
511 1 0.0 0.056129 0.122345 229.971181 
512 2 0.0 -0.763463 1.290944 229.989175 
513 2 0.0 -0.845770 -0.946865 229.967770 
514 1 0.0 0.810427 0.041339 231.341907 
515 3 0.0 1.563032 -0.682638 231.315617 
516 3 0.0 1.448229 0.890064 231.389077 
517 1 0.0 -0.018486 -0.119353 232.648551 
518 2 0.0 -1.038264 0.861586 232.548169 
519 2 0.0 -0.627406 -1.373299 232.447861 
520 1 0.0 0.662414 -0.061754 234.028040 
521 2 0.0 1.725198 -0.973288 234.056663 
522 3 0.0 1.159929 0.919578 234.120080 
523 1 0.0 -0.195919 -0.223450 235.447272 
524 2 0.0 -1.207359 0.699538 235.495284 
525 2 0.0 -0.751875 -1.510126 235.508241 
526 1 0.0 0.638436 -0.012878 236.677340 
527 3 0.0 1.377553 -0.751047 236.603593 
528 3 0.0 1.196407 0.862184 236.532174 
529 1 0.0 -0.088225 -0.048678 238.122000 
530 2 0.0 -0.851542 1.183441 238.241344 
531 2 0.0 -0.975561 -1.069240 238.052298 
532 1 0.0 0.716946 -0.177545 239.436764 
533 3 0.0 1.045213 -1.226382 239.340523 
534 3 0.0 1.502890 0.544880 239.485518 
535 1 0.0 0.020039 -0.081507 240.797191 
536 2 0.0 -0.646828 1.093872 240.778472 
537 2 0.0 -0.962224 -1.103086 240.822533 
538 1 0.0 0.812883 -0.173518 242.198064 
539 3 0.0 1.428565 -1.029971 242.245326 
540 2 0.0 1.825826 0.870583 242.200866 
541 1 0.0 0.049915 -0.055690 243.622822 
542 2 0.0 -0.640189 1.108915 243.630268 
543 2 0.0 -0.915341 -1.025750 243.740381 
544 1 0.0 0.879684 -0.089704 244.888644 
545 3 0.0 1.549306 -0.964348 244.818313 
546 3 0.0 1.542314 0.787794 244.967306 
547 1 0.0 0.042643 -0.060027 246.295525 
548 2 0.0 -0.761185 1.079536 246.225364 
549 2 0.0 -0.820224 -1.136190 246.306797 
550 1 0.0 0.790673 -0.019752 247.688371 
551 3 0.0 1.461293 -0.791587 247.685370 
552 3 0.0 1.395276 0.926893 247.795652 
553 1 0.0 -0.056050 -0.147836 248.971539 
554 2 0.0 -1.042076 0.877301 248.852758 
555 2 0.0 -0.689641 -1.326427 248.872060 
556 1 0.0 0.669899 0.024915 250.420708 
557 2 0.0 1.810111 -0.971534 250.395957 
558 3 0.0 1.179647 0.983255 250.461705 
559 1 0.0 -0.094445 -0.049334 251.786480 
560 2 0.0 -1.121098 0.897149 251.817670 
561 2 0.0 -0.754450 -1.318827 251.786019 
562 1 0.0 0.716179 0.101300 253.114598 
563 3 0.0 1.487801 -0.633375 253.171316 
564 3 0.0 1.158844 1.119396 253.147834 
565 1 0.0 2.116545 3.921398 -6.234780 
566 2 0.0 1.139947 4.935638 -6.165538 
567 1 0.0 2.830816 3.823044 -4.866391 
568 3 0.0 3.332403 2.895151 -4.806070 
569 1 0.0 1.998893 3.834041 -3.520083 
570 2 0.0 1.210995 4.978761 -3.519210 
571 2 0.0 1.126693 2.788235 -3.517970 
572 1 0.0 2.877599 3.805199 -2.211113 
573 3 0.0 3.466089 2.916792 -2.288065 
574 3 0.0 3.462297 4.675067 -2.215158 
575 1 0.0 2.048072 3.876989 -0.907144 
576 2 0.0 1.260632 4.992440 -0.963673 
577 2 0.0 1.174778 2.769188 -0.896875 
578 1 0.0 2.926739 3.905203 0.431933 
579 3 0.0 3.643323 3.112249 0.412871 
580 3 0.0 3.547676 4.759593 0.387326 
581 1 0.0 2.181878 3.886708 1.757595 
582 2 0.0 1.286106 4.960554 1.758383 
583 2 0.0 1.424688 2.732287 1.823450 
584 1 0.0 3.113481 4.004065 3.096408 
585 3 0.0 3.993577 3.330049 3.032374 
586 3 0.0 3.542071 4.982193 3.090313 
587 1 0.0 2.366185 3.812055 4.387015 
588 2 0.0 1.348865 4.735632 4.457515 
589 2 0.0 1.764510 2.539613 4.346862 
590 1 0.0 3.141846 3.873445 5.847239 
591 2 0.0 4.089870 2.835833 5.833191 
592 3 0.0 3.426515 4.865784 5.871400 
593 1 0.0 2.305769 3.783890 7.198063 
594 2 0.0 1.305870 4.693304 7.149652 
595 2 0.0 1.665629 2.566603 7.273162 
596 1 0.0 3.054804 3.975395 8.527547 
597 3 0.0 3.865702 3.259796 8.575277 
598 3 0.0 3.536470 4.891975 8.526973 
599 1 0.0 2.252100 4.017016 9.883521 
600 2 0.0 1.534200 5.217120 9.847260 
601 2 0.0 1.314983 2.976731 9.820025 
602 1 0.0 3.002039 3.945087 11.252745 
603 3 0.0 3.460320 3.015947 11.160592 
604 3 0.0 3.784005 4.731492 11.353438 
605 1 0.0 2.280837 4.001671 12.554970 
606 2 0.0 1.481790 5.124514 12.444875 
607 2 0.0 1.366378 2.944695 12.526941 
608 1 0.0 3.094555 4.058655 13.952398 
609 3 0.0 3.714717 3.165987 13.922106 
610 2 0.0 4.033649 5.130072 13.879400 
611 1 0.0 2.317054 4.135024 15.320387 
612 2 0.0 1.601495 5.357478 15.303114 
613 2 0.0 1.367539 3.107249 15.317789 
614 1 0.0 2.988052 4.069689 16.734294 
615 3 0.0 3.556755 3.167207 16.661554 
616 3 0.0 3.657443 4.882321 16.806808 
617 1 0.0 2.111740 4.083184 18.023037 
618 2 0.0 1.329043 5.212533 17.997028 
619 2 0.0 1.187936 3.013208 17.994614 
620 1 0.0 2.821391 4.063310 19.445348 
621 3 0.0 3.529544 3.241551 19.476796 
622 3 0.0 3.456694 4.910629 19.535649 
623 1 0.0 2.021969 3.909789 20.737641 
624 2 0.0 1.001213 4.844513 20.675439 
625 2 0.0 1.469376 2.658512 20.738439 
626 1 0.0 2.898174 4.089624 22.066441 
627 2 0.0 4.024581 3.228149 21.961534 
628 3 0.0 3.266088 5.084973 22.122759 
629 1 0.0 2.100552 3.866414 23.458895 
630 2 0.0 1.075425 4.786571 23.552304 
631 2 0.0 1.502512 2.623034 23.395373 
632 1 0.0 2.813321 3.897962 24.813570 
633 3 0.0 3.579892 3.175714 24.680210 
634 3 0.0 3.335200 4.809453 24.893838 
635 1 0.0 2.075938 3.813482 26.185985 
636 2 0.0 1.137463 4.848822 26.195099 
637 2 0.0 1.381199 2.595574 26.248027 
638 1 0.0 2.901417 3.954014 27.528573 
639 3 0.0 3.395737 2.983107 27.494864 
640 3 0.0 3.661221 4.724888 27.553778 
641 1 0.0 2.199624 4.056237 28.884217 
642 2 0.0 1.482829 5.295648 28.874611 
643 2 0.0 1.293288 3.058403 28.969194 
644 1 0.0 3.046059 4.044340 30.257096 
645 3 0.0 3.639363 3.143934 30.170717 
646 2 0.0 4.082396 5.029864 30.247434 
647 1 0.0 2.286559 4.050109 31.657878 
648 2 0.0 1.480953 5.191814 31.801782 
649 2 0.0 1.425333 2.977249 31.705955 
650 1 0.0 3.171346 4.019577 32.886580 
651 3 0.0 3.768916 3.126378 32.817623 
652 3 0.0 3.804314 4.884909 32.841561 
653 1 0.0 2.449240 4.073770 34.370315 
654 2 0.0 1.746821 5.224433 34.448873 
655 2 0.0 1.448801 3.086519 34.330092 
656 1 0.0 3.120487 3.969500 35.745762 
657 3 0.0 3.557486 3.018898 35.777493 
658 3 0.0 3.841670 4.738500 35.764659 
659 1 0.0 2.251293 3.844979 37.118724 
660 2 0.0 1.350550 4.912533 37.062531 
661 1 0.0 2.889115 3.815283 38.534436 
662 2 0.0 3.914711 2.736192 38.568404 
663 1 0.0 2.081428 3.832418 39.963879 
664 2 0.0 1.100346 4.869486 39.937038 
665 2 0.0 1.363951 2.641385 40.079936 
666 1 0.0 2.808049 3.965376 41.269716 
667 3 0.0 3.512493 3.123007 41.316411 
668 3 0.0 3.397510 4.817340 41.200720 
669 1 0.0 2.084792 3.997645 42.675278 
670 2 0.0 1.312765 5.134784 42.724304 
671 2 0.0 1.132609 2.904686 42.763146 
672 1 0.0 2.934339 3.931121 44.036856 
673 3 0.0 3.333369 2.941371 44.018270 
674 3 0.0 3.743022 4.616839 43.926740 
675 1 0.0 2.224373 4.187951 45.359398 
676 2 0.0 1.607360 5.429722 45.287239 
677 2 0.0 1.184328 3.229806 45.371370 
678 1 0.0 2.995263 4.079999 46.757489 
679 3 0.0 3.573951 3.192953 46.786773 
680 2 0.0 4.031100 5.055485 46.795653 
681 1 0.0 2.159552 4.114068 48.131096 
682 2 0.0 1.418567 5.289025 48.225384 
683 2 0.0 1.245027 3.067492 48.148268 
684 1 0.0 2.933907 3.975545 49.437406 
685 3 0.0 3.483589 3.038388 49.311854 
686 3 0.0 3.562577 4.813320 49.457502 
687 1 0.0 2.129429 3.892907 50.764293 
688 2 0.0 1.254604 4.985967 50.871759 
689 2 0.0 1.409207 2.707572 50.763451 
690 1 0.0 3.025053 3.890686 52.063836 
691 3 0.0 3.713126 3.078449 52.065881 
692 3 0.0 3.592615 4.777045 52.134067 
693 1 0.0 2.271215 3.769931 53.395004 
694 2 0.0 1.310669 4.727942 53.387755 
695 2 0.0 1.700015 2.499241 53.331628 
696 1 0.0 3.118649 3.899358 54.778620 
697 2 0.0 4.159694 2.798041 54.794399 
698 3 0.0 3.587367 4.820813 54.688997 
699 1 0.0 2.310615 3.849845 56.120682 
700 2 0.0 1.371254 4.894346 56.090401 
701 2 0.0 1.577070 2.640370 56.157062 
702 1 0.0 3.030586 3.892211 57.518986 
703 3 0.0 3.618045 3.033181 57.530513 
704 3 0.0 3.806435 4.631701 57.472472 
705 1 0.0 2.265859 4.007140 58.918593 
706 2 0.0 1.454120 5.135707 58.910793 
707 2 0.0 1.436338 2.936903 58.896958 
708 1 0.0 3.087937 3.943231 60.238361 
709 3 0.0 3.651399 3.047017 60.122673 
710 3 0.0 3.793597 4.830205 60.226543 
711 1 0.0 2.308946 3.951708 61.592257 
712 2 0.0 1.398817 4.975362 61.509570 
713 2 0.0 1.502322 2.753551 61.580295 
714 1 0.0 2.948612 4.032211 63.024398 
715 3 0.0 3.595807 3.178613 63.046510 
716 3 0.0 3.648355 4.841911 63.038192 
717 1 0.0 2.126953 4.019308 64.359313 
718 2 0.0 1.236450 5.153711 64.341310 
719 2 0.0 1.327707 2.855912 64.351893 
720 1 0.0 2.904063 3.990155 65.716104 
721 3 0.0 3.567858 3.155758 65.689172 
722 3 0.0 3.506862 4.903620 65.720827 
723 1 0.0 2.087715 3.966942 67.074747 
724 2 0.0 1.346544 5.114983 67.113341 
725 2 0.0 1.197682 2.908310 67.084225 
726 1 0.0 2.914191 3.894425 68.399116 
727 3 0.0 3.489655 2.996083 68.394111 
728 3 0.0 3.632728 4.682814 68.449184 
729 1 0.0 2.153817 3.871810 69.697648 
730 2 0.0 1.256908 4.939457 69.684199 
731 2 0.0 1.356929 2.731704 69.757964 
732 1 0.0 2.998028 3.930395 71.068760 
733 2 0.0 4.009251 2.932226 71.033531 
734 3 0.0 3.600984 4.806439 71.080907 
735 1 0.0 2.228335 3.891118 72.476422 
736 2 0.0 1.239442 4.894305 72.449106 
737 2 0.0 1.541740 2.643991 72.514061 
738 1 0.0 3.039280 4.056714 73.787236 
739 3 0.0 3.736372 3.298610 73.833780 
740 3 0.0 3.551482 4.954148 73.687434 
741 1 0.0 2.215396 3.972868 75.155805 