LAMMPS data file via write_data, version 19 Nov 2024, timestep = 2000, units = real

5160 atoms
4 atom types

0.5760280395090618 7.423971960490863 xlo xhi
23.47314260999312 302.52685738999617 ylo yhi
3.3114411921266758 42.678558807872896 zlo zhi
0 0 0 xy xz yz

Masses

1 12.0107
2 1.00794
3 15.999
4 14.0067

Atoms # charge

5 1 -0.0851229920464235 1.842392682111038 30.572312654086172 6.0022085725400816 0 0 0
6 1 -0.04562284380933426 2.704069142271523 31.216428491399025 5.067305271220757 0 0 0
12 2 0.1837143502676917 1.5027022405710775 29.555069665078094 5.768438974978531 0 0 0
27 2 0.1692611367419927 6.443785844933244 29.58691486924183 7.927635443015487 -1 0 0
1 1 0.01615606336501099 1.8848796672782018 31.061213817160265 7.338793804221702 0 0 0
16 1 -0.01481101682589886 1.594961868931336 30.077197301839508 8.491161292171547 0 0 0
20 1 -0.1099640262067346 7.214357929978241 29.417782889920975 8.624813293975336 -1 0 0
28 3 -0.4726555069597211 4.676489790540201 27.71052547259638 9.818716168022192 -1 0 0
14 1 0.3410725156433595 2.7246942337438074 30.729868693660002 3.7130711064915536 0 0 0
21 1 -0.04666989506385456 7.046903844567643 28.418201874670096 9.640133883401887 -1 0 0
17 1 -0.09569402963316989 2.606227579453377 29.831219319718166 9.475139106373662 0 0 0
25 2 0.1569984959354707 3.4866598597559553 30.464259677813388 9.500605578021311 0 0 0
4 1 -0.02420932002622112 3.5241968754351505 32.44442861854592 5.286750729670501 0 0 0
2 1 -0.09450183455202041 2.55011440381205 32.31369440287108 7.555306178513791 0 0 0
221 2 0.2189257433440014 0.9873798062208221 32.78759943305142 4.387624817956306 0 0 1
133 3 -0.436233351749192 7.182194869598154 33.223028126982236 6.475278772091581 -1 0 0
132 2 0.1799327744281008 6.431304662328122 34.04584446765658 9.14284704919411 -1 0 0
134 1 0.3601793116915147 0.7196152140283036 34.46247291225406 6.542656726440101 0 0 0
3 1 -0.07675778559536826 3.357299917948307 32.979634389791 6.619155680971794 0 0 0
10 2 0.1699736056617998 2.4517268555109113 32.81712754389833 8.488387531792537 0 0 0
125 1 -0.08801616054120827 6.769635100316162 35.04825926096725 8.921760152886463 -1 0 0
239 1 0.1896846473012336 1.3479087244079722 34.86073658858687 4.162492227649953 0 0 1
11 2 0.1839077500795201 3.6771766416307945 33.95578073561843 6.777400755104642 0 0 0
279 1 -0.1056063254794388 4.531290548527847 37.74839554187711 5.7592970945472475 0 0 1
128 4 -0.3964149145916339 1.2492323208820362 35.26155588674932 5.510424951160511 0 0 0
123 1 -0.06715555218334013 7.333194771534352 37.79245342566818 8.139466783488158 -1 0 0
124 1 -0.02359145870577435 0.8310045935016037 36.729072795465676 7.2445969588917105 0 0 0
126 1 -0.05108948516596053 7.366307081352321 35.38491726105591 7.691506080574754 -1 0 0
127 1 0.3233009610130304 1.3113803099083352 36.907009463367395 5.8403921936949175 0 0 0
131 2 0.1723881024785758 0.6188237976513743 38.789021718500905 7.835255213756134 0 0 0
135 3 -0.4676856081812694 1.5416089138103644 38.00166883478008 5.207531084791787 0 0 0
248 4 -0.4292308146408557 4.157450878666033 39.41792768555604 7.655306015190899 0 0 0
253 3 -0.44596796700512 3.4253720785446 37.37524138284279 8.846970159969281 0 0 0
254 1 0.353179614129166 3.8475027174423464 38.59660549094039 8.790017340002976 0 0 0
342 2 0.1921904104033473 4.918463379948704 36.97331567827128 6.349229322036338 0 0 1
246 1 -0.0613256330424171 3.6151026585540347 39.678504676106215 9.78363650087547 0 0 0
310 1 -0.1170945761248465 4.437216867921785 37.51227517441852 4.352603979625482 0 0 1
359 1 0.1858974584325087 4.168070269618241 39.00709235897748 6.281736967402431 0 0 1
237 1 -0.09518759607632431 1.269587932774475 33.533885430521664 3.672840714297415 0 0 1
357 1 -0.1042046740509191 3.983884702002018 40.044897085271856 5.326269579284247 0 0 1
478 2 0.1935329241027745 1.43481401862311 40.4363574951489 6.17326844896865 1 0 1
7 1 0.3112935537978369 4.2988918204801525 32.961289902228486 4.2324304684165295 0 0 0
122 1 -0.1088991275449941 6.66991745287268 37.542547367921486 9.375017016540749 -1 0 0
121 1 0.01432928764565738 6.383915092366271 36.18599233802446 9.710464263862228 -1 0 0
356 1 -0.1345826893705553 4.004212972086581 39.839028326399415 3.9187107227504043 0 0 1
15 3 -0.4317375597304101 5.022967277484152 34.02048800767405 4.162860851342814 0 0 0
343 2 0.2108560292961423 4.6343834466048515 36.53518961538717 3.9977163424250106 0 0 1
332 1 0.2048714642110269 4.24814299435271 38.51037203032584 3.3961705547435312 0 0 1
147 2 0.1895960247264055 3.8356860226469838 35.08532717910958 9.740382065386605 -1 0 0
247 1 0.3343428301795904 4.448456443617967 40.91169646882861 8.007498300531328 0 0 0
29 1 0.3532706409722303 5.904585045896786 27.645220965900243 10.201143764191322 -1 0 0
61 2 0.2259309154351277 3.7352717107137074 26.30018288499587 10.93040758638724 -1 0 0
50 1 -0.1612499135625214 5.11989671273466 23.925365356683244 13.499334036678526 -1 0 0
49 2 0.1926545617288945 6.862368272972083 25.175610479352127 13.4154925156157 -1 0 0
18 1 -0.05921655945731532 2.4306084365902274 28.929028780581106 10.560049339956603 0 0 0
19 1 -0.05458384952852675 1.2387317929181154 28.170577797578314 10.61768957564454 0 0 0
22 1 0.36245157968126 0.9392795396944037 27.123545996338308 11.632158130360684 0 0 0
23 4 -0.4070543387423798 6.415079336045648 26.8377334087073 11.337630971765082 -1 0 0
24 3 -0.4830386195112027 1.6250567533748244 26.737425874520316 12.677746327075976 0 0 0
43 1 -0.09772903264631723 3.402086425125097 24.61872177903544 12.042947068173104 -1 0 0
44 1 -0.09139476687813913 4.2000719742489805 25.61178632742808 11.577090758660836 -1 0 0
46 1 0.1730216747736863 5.593457265274558 25.78398354273549 11.880712096622268 -1 0 0
48 1 -0.110744712852735 5.930711877062485 24.981271415344313 12.96711477094111 -1 0 0
26 2 0.1970181163310039 3.1850146900248464 28.767496647976618 11.293896312158257 0 0 0
164 1 -0.1167691389218466 0.8061271139377314 31.26009832775532 12.653991347756229 -1 0 0
162 2 0.180341535397049 5.874642521250625 30.187956287051648 12.412672843577338 -2 0 0
163 1 -0.1201247686579997 6.6742081305833025 30.372653806510918 13.092852589686917 -2 0 0
172 1 0.225438298384569 6.675480256270649 29.573462888557916 14.252526448292231 -2 0 0
168 1 -0.1048629210517869 1.9938697323133059 30.826302973564726 14.635077333379163 -1 0 0
52 1 0.2138111282953577 3.8513090642882304 23.6450955268938 12.99742585575786 -1 0 0
42 2 0.1992067246468657 2.4131793436683675 24.475475897339145 11.646846261194336 -1 0 0
170 1 -0.147213042392718 1.0051037890361798 29.895622224563283 14.985132666627669 -1 0 0
167 3 -0.445399509668469 5.644879911906589 28.600126861050153 14.559116299173615 -2 0 0
174 2 0.2255171553444403 1.0065524547195788 26.83050951746741 14.464012196187335 -1 0 0
153 1 -0.1522831795070482 7.296317757427577 26.838050758417168 15.441156970497106 -2 0 0
154 1 0.1988818573456279 6.19437753348008 27.69066208377769 15.573428532619621 -2 0 0
169 2 0.2000526791941755 2.7914368963794574 30.982964060924676 15.30167014435836 -1 0 0
171 2 0.1710068225366483 1.1546727840516944 29.42661587955792 15.914684467126435 -1 0 0
166 1 0.1732679776892648 2.0004835547632873 31.579964154407207 13.390157449477048 -1 0 0
181 2 0.2047648523902445 0.6746821381746395 31.69756545384819 11.723888279326857 -1 0 0
179 2 0.1713034425565247 1.512078035801724 25.187717033804738 16.257364185513445 -1 0 0
245 1 -0.08162928068108127 3.152914726287438 39.41966191941795 11.070759765123983 0 0 0
252 2 0.1881291423669992 2.9225440385449244 38.40108562492486 11.34811356497248 0 0 0
130 2 0.1643991936368259 6.259835063193622 38.35287274737545 9.91903372403214 -1 0 0
143 4 -0.3932118355352511 2.8859285808508153 32.55937200564443 13.094457144555728 -1 0 0
148 3 -0.4922612299096834 1.5241575289064389 33.41061937479576 10.956617973956174 -1 0 0
144 3 -0.4797150857249573 4.464000951628356 32.64877332043496 15.07216075087162 -1 0 0
142 1 0.3574864562633724 4.077017894640733 33.029016480890974 13.894155674785987 -1 0 0
267 2 0.1667937760095305 7.037459571191027 39.44149691022761 11.821195303987153 -1 0 0
149 1 0.3129488169076519 2.574836341745052 33.42373652307808 11.692590105530256 -1 0 0
141 1 -0.05013989669353069 3.8572107176596337 34.10717207168592 11.705297888097435 -1 0 0
139 1 -0.04620008338750606 4.681971609916009 33.93221255214874 12.912344969945924 -1 0 0
140 1 -0.104278664651716 4.30836563661307 34.97295082296483 10.669759922920363 -1 0 0
241 1 0.008871918101062685 2.7682704316089732 40.597728019633934 11.804155737931467 0 0 0
260 1 -0.1018699553361525 7.353172346315226 39.78376134943096 12.83880844040688 -1 0 0
256 1 -0.02221322730869425 1.784841337116257 40.38946318991238 12.941025320582572 0 0 0
268 3 -0.479651668041835 4.684233549211932 38.2336629146021 12.960512345905912 -1 0 0
136 1 0.01491436148811981 5.567681615005602 35.61803646909967 10.865370033701158 -1 0 0
261 1 -0.04276536623016769 6.506264778720143 39.632059286957016 13.955822109274703 -1 0 0
269 1 0.3369621990239297 5.264696918508127 38.83565671971899 13.944782659302916 -1 0 0
137 1 -0.08180051814754012 6.3834665255212935 35.450748208801116 12.037928261652912 -1 0 0
138 1 -0.07517410290007641 5.893388627043827 34.66480703044637 13.107789188753282 -1 0 0
145 2 0.1686201877057371 7.2871797243811685 35.9449228259538 12.066598667728355 -1 0 0
146 2 0.184765594690003 6.322810451307353 34.63097014999202 14.071211848885682 -1 0 0
262 1 0.3432269162701583 5.944202948528585 39.5747934240527 16.350857915705774 -1 0 0
263 4 -0.4303851694035228 4.92458108710979 38.99773092409039 15.440808754407772 -1 0 0
283 1 -0.1265141655506726 2.0063095796576613 36.7328719964031 15.151645460759857 -1 0 0
284 1 -0.1090182037278278 2.886531095566583 37.78922023066548 14.866896753712712 -1 0 0
286 1 0.18532204775619 3.894135072051648 38.19179406879614 15.820213168689257 -1 0 0
301 2 0.2007091185622082 2.828140258913086 38.192659758806215 13.937227172662265 -1 0 0
282 2 0.1725983174869755 1.2557303911249167 36.49720651087655 14.39154262237788 -1 0 0
259 1 -0.06384357168235073 6.908761761179304 40.02195957963645 15.326648184453976 -1 0 0
258 1 -0.06235691635675002 1.336405336174626 40.67804301083867 15.389414270933347 0 0 0
257 1 -0.08156202661343823 2.1008166068501604 40.8477960409388 14.243647056262331 0 0 0
294 2 0.2233941236525532 5.861391152256812 33.45458231354139 16.284863700539837 -2 0 0
240 2 0.1860134690569896 2.043070964681633 24.11264156814286 21.301548914706384 -1 0 0
158 1 -0.1460847056451574 0.8989137538848975 25.995684979548994 16.501470411055237 -1 0 0
173 2 0.1716760024039817 4.754739497267202 28.325886315580014 16.972279116515104 -2 0 0
155 1 -0.1393315135926646 5.55655608175013 27.69060610343245 16.83802220339154 -2 0 0
152 2 0.1757381872040562 5.458948766565766 26.81347258864969 18.80006794441824 -2 0 0
129 1 0.2187387722824747 1.5360491150859137 25.58363009865323 19.810060832790185 -1 0 0
150 1 -0.1404694355525211 2.16201218341084 25.117845263854807 21.000986427026437 -1 0 0
156 1 -0.1510558981907442 5.971414690932938 26.840566225760472 17.90188586523717 -2 0 0
157 1 0.1684850751557792 7.055082163059136 25.97080500626803 17.7211071624726 -2 0 0
160 2 0.182588168830112 1.1649285843706758 27.4916304498299 19.038913510718636 -1 0 0
161 3 -0.4425998465820428 0.6656876508400844 24.977544360067625 18.828086878721784 -1 0 0
180 1 -0.1551168098519002 1.7072541931071352 26.982850478058495 19.733683723356616 -1 0 0
178 1 -0.1321775482794539 2.414349260392285 27.75629222430345 20.648275644382526 -1 0 0
175 1 -0.116288731253712 2.91763380774531 25.89873679818807 21.905304214455146 -1 0 0
165 2 0.2102217047910347 2.485532618622448 28.80774617031619 20.42683031645124 -1 0 0
176 1 0.1606970574968294 3.171378967700471 27.302569201316867 21.762144430710627 -1 0 0
194 3 -0.4566380157072672 3.565956252924037 30.370236384659584 21.475746607560332 -1 0 0
281 3 -0.4899004342115296 0.7066645187954868 30.181916916616508 19.20234884435823 -1 0 0
195 1 0.3484817733370609 3.8267887343310365 29.678298796648523 22.51189532903626 -1 0 0
249 1 0.2352159326821661 0.8160188526266126 30.52792075503333 20.600114945777342 -1 0 0
270 1 -0.1316035003491582 0.6818161147385942 29.631366100335143 21.68306266735447 -1 0 0
360 2 0.1800371649127125 7.386761210099062 28.62267175496524 21.354287766364408 -2 0 0
300 1 -0.1454718843223145 0.8126981490880101 31.90542962781979 21.02252664753215 -1 0 0
189 4 -0.3861323777352756 3.8618736169788708 28.124063714248805 22.656654922129565 -1 0 0
298 1 -0.09866001140953209 0.9872894425419294 32.16209268162754 22.39668943238594 -1 0 0
277 1 0.190290729439263 0.7696004654196392 31.3856719921311 18.30011777285395 -1 0 0
299 2 0.1795136091576185 5.607406378594548 31.282792040400697 17.405192768901337 -2 0 0
278 1 -0.141509903236669 6.546539847499118 31.780628046374677 17.497085614600998 -2 0 0
177 2 0.1876518681452267 3.4254996294788636 25.37479107478964 22.738608291868335 -1 0 0
272 2 0.1816947414194949 2.681741622574072 31.750059267491288 19.102829848614263 -1 0 0
276 1 -0.1519964642092 1.9520870138022863 32.13535259935446 18.35841566393257 -1 0 0
395 1 -0.1323095479660062 2.6345621669286667 40.718691848541 19.860508694855103 -1 0 0
275 1 -0.1548454604127992 2.04486510077297 33.403299188058725 17.721273595307654 -1 0 0
285 2 0.1993176895587362 1.1080953369371165 33.21013673086336 22.608853831893022 -1 0 0
397 1 0.2070341302540639 4.716568693964184 40.49202795090906 21.16981167819299 -1 0 0
392 2 0.1662460001174906 3.2990849489730047 38.97883786929741 21.05262710113918 -1 0 0
401 3 -0.4629947327555951 5.687725441781521 39.90942272210496 22.13152316097221 -1 0 0
293 2 0.1645069627810682 2.929579657967395 33.99374732496673 17.798445942037098 -1 0 0
396 1 -0.1401278839235393 3.5289517634566225 39.962905346587135 20.697696420776218 -1 0 0
290 1 -0.1633492815475681 2.656360603815386 36.829220817735546 17.42759045389142 -1 0 0
289 2 0.2012685149982301 4.249309077467473 38.14255057707861 17.948176369201747 -1 0 0
288 1 -0.116367032089797 3.6537699062923124 37.76889392317059 17.16112499560463 -1 0 0
292 1 0.2150532613148191 1.8545140827050348 36.21294277344765 16.441439273108195 -1 0 0
264 3 -0.4558566628030238 5.84367101534697 39.74803463922525 17.650369702325445 -1 0 0
413 2 0.1915924196821449 1.7061715571552545 40.36863936512549 19.521655878450325 -1 0 0
287 3 -0.4734357494984021 0.697083824623832 35.29916032258902 16.661788976740212 -1 0 0
273 1 -0.1206834344934443 6.654597530214984 33.069623333431764 16.93506308818364 -2 0 0
291 2 0.1609421359939992 2.4646811021720247 36.630930967773075 18.403225081524653 -1 0 0
280 2 0.1608873785412353 0.645218806034202 32.67800573732266 20.323691444906586 -1 0 0
274 1 0.2137629559005676 0.8923266107949692 33.947396990926016 17.091493950869904 -1 0 0
187 1 -0.009676923082883163 4.121462341211675 30.037255774808607 23.931920007768376 -1 0 0
188 1 0.3263096932019427 4.7248585747146326 27.612360407677166 23.896516075103182 -1 0 0
185 1 -0.04505136249293472 4.880589520678403 28.92869772570869 24.5132781567082 -1 0 0
184 1 -0.05551859045423868 5.660551224907081 29.12643458179782 25.7097878640105 -1 0 0
192 2 0.2050662174782903 6.336900777517051 28.37610149524404 25.99347844728134 -1 0 0
183 1 -0.0729928299073159 5.607225191804007 30.39655982309544 26.2904271905679 -1 0 0
182 1 0.007349324009885567 4.842807843415009 31.455300583149246 25.762752331017445 -1 0 0
186 1 -0.08655102571221647 4.068735541976704 31.30440768828552 24.582136306337443 -1 0 0
196 3 -0.4550460269331454 5.10556906663716 26.440962802874985 24.28305066537429 -1 0 0
191 2 0.1754148258942761 6.158540348732001 30.560363227516326 27.169055657676136 -1 0 0
88 2 0.2131109664614001 4.359524807212669 26.567411178682324 27.133272184377667 -1 0 0
80 1 -0.04844382003438867 5.246269698751128 25.982436674470243 27.169932195815957 -1 0 0
81 1 -0.03632653563475711 6.4294165414113404 26.50795321292514 27.74333033407617 -1 0 0
209 2 0.1613747165123146 5.567187628670036 31.61228390136756 28.252857602943152 -1 0 0
316 3 -0.4340500654422487 1.7013028635434175 29.409231564098306 25.917878349760933 -1 0 0
312 2 0.1760907810433049 2.2730538130267632 30.530965921763695 28.796276832935177 -1 0 0
308 1 0.3221873997328363 1.6256704262802728 30.687651245781304 25.94430282297624 -1 0 0
297 2 0.2061836680138766 0.7894913373916692 29.16520332720111 23.77794130843258 -1 0 0
309 4 -0.3972964555173949 1.0669185395200245 31.718263922661215 24.806579652560142 -1 0 0
304 1 -0.09352898311599497 2.2094026993277582 31.471541648443058 28.351213545634714 -1 0 0
305 1 -0.05356109899838901 1.8525852337316184 31.71517826821862 26.957206597208994 -1 0 0
296 1 0.1721914567269672 0.9544687934181457 31.256668456307395 23.473847112392537 -1 0 0
79 1 -0.08624580285986036 5.419314607110465 24.69257929268676 26.591108475926976 -1 0 0
83 1 -0.02561357500417528 0.8945889567247836 25.78680269698308 27.91688268107984 0 0 0
86 3 -0.4781344379935681 5.447597891124697 28.633576150011475 28.62383401431162 -1 0 0
84 1 0.3640472553032038 6.378409003983301 27.72070756179555 28.525805507542028 -1 0 0
87 2 0.1705524353282253 4.53657311364785 24.246997348135988 26.2227350682779 -1 0 0
193 2 0.1922912602497243 3.490764304944989 32.153114420335065 24.24886856158532 -1 0 0
91 1 0.3168536167467273 1.921057099786128 26.302807339922413 28.781540719237906 0 0 0
82 1 -0.1078243238665491 1.0103861872543836 24.599329918492597 27.1744091471187 0 0 0
78 1 -0.001539727340921039 6.674381047733589 24.061260065554094 26.56031953150997 -1 0 0
295 1 -0.09622946747510193 0.7730777531112647 29.90624784954091 23.055845491440838 -1 0 0
90 3 -0.4282479627821561 3.0904923570429297 26.023971237876008 29.1691345928998 0 0 0
85 4 -0.3624170940463227 0.8016964605641734 27.671423402140093 29.1929134385683 0 0 0
89 2 0.1777241195038741 1.8882182886443746 24.057115057749385 27.21823393024407 0 0 0
303 1 -0.1065100447097721 2.4713711130495737 32.57554848575791 29.205065633939743 -1 0 0
202 1 -0.1162892016807372 5.3500623738145245 32.5368207285655 27.884385647809133 -1 0 0
307 1 -0.02786337740945884 1.7274745611758344 33.09333310392182 26.505904489634535 -1 0 0
198 1 0.01581307395657726 4.838743381760355 32.72840223730746 26.56242889604376 -1 0 0
203 1 -0.05148636939825449 5.7156459821309475 33.671637397176 28.607705689090487 -1 0 0
315 1 0.3335648622951783 1.4959639486760428 33.121168692095544 25.007099872972685 -1 0 0
415 1 -0.1104466110791112 5.313993371816921 39.67822034504047 25.859868911327457 -1 0 0
207 2 0.1747015815709433 4.353383700976853 34.032725672862874 24.923360793537192 -1 0 0
199 1 -0.1043306022458199 4.64980451277828 34.00055997701153 25.93258963806575 -1 0 0
369 1 0.2278766303550123 5.445522334228006 40.23919020598069 23.5270467141072 -1 0 0
200 1 -0.1013372867597616 5.0161446199237485 35.13579274939415 26.637080115904244 -1 0 0
208 2 0.1533508711289119 4.960323039120203 36.08231923271774 26.130889594423532 -1 0 0
314 3 -0.5124810418850527 2.0397141561551857 34.0117839463597 24.249283180441225 -1 0 0
302 1 0.02170105634815697 2.4264099056114414 33.918552343521654 28.62315924157869 -1 0 0
306 1 -0.1111644841018796 2.0986844081260783 34.198290643653664 27.26357984605657 -1 0 0
313 2 0.162830510170519 1.911766283323925 35.155978683028536 26.897425417020873 -1 0 0
327 2 0.1574653298463405 2.8698675269363596 36.55064886924531 27.957493164664402 -1 0 0
319 1 -0.09892365537817191 2.9886574808318365 36.36619762442496 28.991003633148427 -1 0 0
201 1 -0.0383590560909465 5.45084187419278 35.0027364880695 28.014906218873108 -1 0 0
204 1 0.2935364248755378 6.081376638232297 36.12198698403456 28.670509023960623 -1 0 0
206 3 -0.4226488695078191 5.994891347853993 37.34868941138977 28.320917117063303 -1 0 0
328 2 0.1900136618789081 3.421658957896935 38.41935841819089 29.509948496427373 -1 0 0
390 1 -0.151724460514267 5.7281902413737855 39.349255271498244 24.576988587641985 -1 0 0
480 2 0.1652946826124844 6.243185148273659 38.43091646783083 24.396333925738727 -1 0 0
434 3 -0.3811723998191339 6.663474401494661 39.7459041630315 28.86614331656044 -1 0 0
417 2 0.2120780884595868 5.540032177456603 38.96816163199042 26.591175627087722 -1 0 0
318 1 0.02347214180380352 2.8980112395620257 35.011107759018316 29.497224342477853 -1 0 0
416 1 0.1823401074981005 4.692018773564695 40.88737582495678 26.24653291120646 -1 0 0
435 1 0.3062077124491167 5.672100688047057 40.559245992674484 28.829878619948996 -1 0 0
77 2 0.2027900063048522 6.257268778016426 29.955702533811664 29.772747321045554 -1 0 0
104 2 0.18581345794826 6.248031431702889 31.04527534064005 31.774799960966753 -1 0 0
105 1 -0.1263936784500035 7.075427972749858 30.358140391141063 31.685295278469923 -1 0 0
106 1 -0.1241185299936506 7.050425404705003 29.725731356094023 30.452827733319804 -1 0 0
107 1 0.1586740141482204 1.0486073391634563 28.594173505784017 30.150949006466295 0 0 0
109 1 -0.1169204225952163 2.1255735759202574 28.457046540682608 31.081720786650184 0 0 0
110 2 0.2031988243007864 2.828376372024624 27.70604521538342 30.915597947320645 0 0 0
111 1 -0.1690083552132325 2.188863000048907 29.23413896006317 32.21372012886597 0 0 0
113 1 0.2127818825675697 1.1635911143236046 30.07747531734589 32.756085712400704 0 0 0
108 3 -0.4812026532826569 1.075738422975847 30.76692650135321 34.00492680211488 0 0 0
96 1 0.192154592916663 2.4537943074957873 30.95671161282504 34.660888125362405 0 0 0
112 2 0.161257369415608 3.0063759487409545 29.023961403225876 32.86199582291738 0 0 0
100 1 -0.1252691154157678 4.85543307557004 30.888272587820456 35.09778384144754 0 0 0
95 1 -0.1602832212080393 3.7754436042272155 31.02469414387989 34.18175652954589 0 0 0
31 2 0.2092037186333917 5.850923194402415 30.783753319682837 34.70847016699501 0 0 0
115 2 0.1532917594725189 3.9486383005103236 31.13718107520563 33.124913902168544 0 0 0
97 1 -0.1185375150376689 2.2977866556180673 31.04322943177274 36.04319948941382 0 0 0
311 2 0.1597323369755717 2.5651817775075045 32.448557741933044 30.26042106638793 -1 0 0
211 1 0.3695918049414877 6.55595509185169 33.86467025333435 29.818890990667782 -1 0 0
205 4 -0.3901719516891942 6.733598692267361 35.2357743084609 30.03166472532768 -1 0 0
210 3 -0.5013647550383419 6.811259176826448 32.92536235954881 30.687909654214533 -1 0 0
320 1 -0.0585335010977045 3.406888680845001 37.41029961292572 29.837425208518592 -1 0 0
230 2 0.2164751477857395 7.09339743935683 34.124260123518255 32.42615313092591 -1 0 0
346 1 -0.09774371058073861 5.277577040566326 38.93552373369934 34.83922176050387 -1 0 0
227 1 0.1735846068680483 7.126668537372428 35.85434895192092 31.217192396623897 -1 0 0
229 1 -0.09568017133297939 7.292940300648142 35.16434262915136 32.43280774748587 -1 0 0
231 1 -0.1388032122200039 0.7645762828991932 35.72123477026132 33.701002302192435 0 0 0
226 1 -0.09909369010016991 7.229872103999158 37.27671789381666 31.409013300058007 -1 0 0
225 1 -0.12607899408503 0.9817129402138483 37.754945270033645 32.58215456515693 0 0 0
197 2 0.2243517417482093 6.893886020978191 37.909204205998094 30.636206255864952 -1 0 0
224 2 0.1799981850127876 1.296600793365109 38.753513697239306 32.58513459865445 0 0 0
322 1 -0.09553622165009867 3.4637103417994317 34.66068499839072 30.78314707967494 -1 0 0
329 2 0.1599228630697876 3.6488089472094107 33.636904171534326 31.11697013491063 -1 0 0
321 1 -0.0449676856691822 3.7773388739283558 37.09949806989111 31.179779610146948 -1 0 0
323 1 -0.03544383760989391 3.882733582441939 35.69977319689991 31.64195541147847 -1 0 0
325 4 -0.4249333989868656 4.570378151904244 37.087420195883915 33.30395299538876 -1 0 0
330 3 -0.5140537985325918 4.375246079256447 34.70898885053644 33.89301920224659 -1 0 0
331 1 0.3711242167691594 4.336686749260316 35.6849881158284 33.03683874082951 -1 0 0
347 1 0.1871953426419466 4.9085123901892125 37.55936942024549 34.619421887433816 -1 0 0
324 1 0.375260612065199 4.486834905436103 37.98109878570315 32.14385665593692 -1 0 0
233 1 0.227254492052609 1.1393678948998205 37.082354086898015 33.79983527368756 0 0 0
235 2 0.2269728513939507 3.0863360585989006 34.954538864481314 35.01246613504256 0 0 0
232 2 0.1779933631137711 0.7762906526005409 35.14457681113632 34.60373696647511 0 0 0
349 1 -0.1125360223849608 5.030264013061997 36.793800849433666 35.773602247124074 -1 0 0
350 2 0.1981825347899161 4.799221506395739 35.757707914049476 35.688586581763545 -1 0 0
228 3 -0.4504419308742366 1.5728920666254962 37.61441975913375 35.08539062221062 0 0 0
215 1 -0.1698562911677323 2.551190940160574 35.26010879616736 35.89921495522428 0 0 0
345 1 -0.1121141736867044 5.649763887509833 39.452041175777275 36.098128849607676 -1 0 0
326 3 -0.4984214638841902 4.892529524530564 39.194275389419474 32.08425261210733 -1 0 0
216 1 0.1872311278959684 1.8504883012618096 36.48185814089445 36.00600217415469 0 0 0
317 2 0.216273676405115 5.245645411212545 39.60640768739785 33.98926455375683 -1 0 0
344 2 0.197628200178105 6.066356679693338 40.41052176066367 36.11708934153455 -1 0 0
433 2 0.1955381639691871 6.25625872619245 40.73822983054787 31.45753605887769 -1 0 0
13 3 -0.4585106945615409 2.0926498359770225 29.748765161552445 42.48177273924357 0 0 -1
99 1 0.2228808476216201 4.684029176190167 30.900761926281223 36.50675032773934 0 0 0
114 2 0.2058438048151749 1.2779537534738954 31.02581488288821 36.44798344378859 0 0 0
98 1 -0.1704850149404134 3.370268589695084 31.09841152845745 36.962573496199326 0 0 0
94 2 0.1813313762880679 3.159025404271416 31.05913728413311 37.99285659788866 0 0 0
93 3 -0.4676813192084934 5.818562739892518 30.663589722877962 37.35983190617765 0 0 0
118 2 0.1708386566799184 4.2150558197976515 29.081775653022383 38.86104726410855 0 0 0
116 1 -0.1527126516094624 4.59780420368956 29.87508242190775 39.41959639992507 0 0 0
117 1 -0.1074076970162533 3.9266077774690253 30.20871514985829 40.580424454095876 0 0 0
92 1 0.2008708545325811 5.570475020629948 30.76089278512687 38.8515970491315 0 0 0
119 1 0.1860191819740279 4.388590942225859 31.303307836172685 41.41718421349164 0 0 0
101 2 0.213761576087886 2.9383929111985516 29.768667711631466 40.775431552710884 0 0 0
70 1 -0.1422024217088694 5.958388212630554 31.881083772165574 39.63954391632086 0 0 0
39 1 -0.1242895427037402 5.490826272769161 32.084674926121686 40.948216737210004 0 0 0
238 2 0.1950167928340474 1.3610977929986166 32.08351364134187 41.532416709495436 0 0 0
8 4 -0.3908457662924391 3.7098316200904278 31.63102453506771 42.53058782854559 0 0 -1
214 2 0.1507283912444155 0.9051506797303568 36.02368409391923 39.25260242894889 0 0 0
219 1 0.1978172719229499 2.115550456201789 34.56765987181965 38.297870426807734 0 0 0
222 2 0.1939659465798429 1.4941268921858208 36.81997917838546 42.562070032648464 0 0 0
336 1 0.1887485336164086 7.3986177796640265 39.070907495609205 39.10672962422551 -1 0 0
103 2 0.1861483608392221 6.6845669944863095 32.55452307782797 39.26062981599296 0 0 0
102 2 0.1957200596599593 5.7983291361991665 32.914943755912105 41.536113453597466 0 0 0
354 2 0.1987476909812318 1.8106213034419405 39.19001983170739 37.480807447521144 0 0 0
351 1 -0.176025095793411 5.323376987913386 37.34071970004404 37.05997225553496 -1 0 0
271 2 0.2055427074826319 1.781754929547251 38.90486212097214 42.29268222460075 0 0 0
338 1 -0.1299010647974899 3.0519257134434024 38.800240739512105 39.18760818145839 0 0 0
339 1 0.1989898294792387 3.0295451747393813 38.647048829491965 40.5801160087309 0 0 0
334 2 0.202777779308075 3.958363600209892 38.700380894581656 38.62284910580165 0 0 0
352 2 0.1585300474674301 5.258661028993521 36.69869498888877 37.88286554503722 -1 0 0
151 2 0.1834660866938632 2.893856309757473 33.33043658392972 36.77376577995393 0 0 0
340 1 -0.1549661225208825 1.7908577852257754 38.88881178167518 41.230923605646595 0 0 0
218 1 -0.1813341615606838 1.4895393075825307 35.83999878115276 38.36520416772608 0 0 0
353 1 0.1808223475456679 5.653623722756274 38.6782798869076 37.29043444861854 -1 0 0
159 1 -0.1055364591402113 1.4539301072497932 35.76966551126141 42.409815175880254 0 0 0
337 1 -0.1616164984668624 1.8081168187329746 39.038378096637736 38.516300007672655 0 0 0
333 3 -0.4727663221299144 4.2231630063513945 38.196162662602234 41.336819345214266 0 0 0
236 1 -0.1363708463854897 1.530237381240462 33.07396216960479 41.723542497257895 0 0 0
213 3 -0.488228182358123 2.14624246002019 33.51459395277191 39.31901250335652 0 0 0
335 1 -0.1265930729194658 0.5980949087514876 39.142134228331294 40.52037321126949 0 0 0
212 1 0.2115781956253169 1.784179021850981 33.96923470988767 40.651180143957276 0 0 0
234 2 0.1835149598394421 0.7160971394406305 37.59920551412704 37.41460080121905 0 0 0
355 2 0.195841760866057 6.533844260685706 39.32572541963947 41.0728868930627 -1 0 0
348 3 -0.4710407502612967 6.115490056763828 39.39980191497054 38.47963293766395 -1 0 0
223 2 0.1620520517615017 1.847454513065925 36.07816789257555 40.346389985324706 0 0 0
217 1 -0.1301873441268495 1.251180494996576 36.68578870053578 37.26998057446582 0 0 0
190 1 -0.1676649868663925 1.6504019428109513 35.32747130878163 41.079750841624346 0 0 0
220 1 -0.1459312364457966 2.534709144748833 34.289031875434624 36.97589419797107 0 0 0
358 2 0.1822915389529451 3.9234876839006168 40.711127219259865 42.60977192885612 0 0 0
367 1 0.323888773522673 1.4870145259752827 45.78201047089448 8.909809940701404 1 0 0
368 4 -0.3918354489728753 1.4093834917476755 44.12087067252819 8.89152363719862 1 0 0
375 3 -0.4227460204549183 2.2466240552691037 46.54795211206608 8.261399551830522 1 0 0
479 1 0.1797144877480552 1.594439125650409 43.52167644102353 7.646836413712555 1 0 1
462 2 0.2147843272604449 2.1491363310327847 45.241595361045 6.486503872018254 1 0 1
399 1 -0.1064278817070454 1.9508400118379754 44.20884945113353 6.456409300420556 1 0 1
430 1 -0.1513946954133707 1.890730953632353 43.57106971685357 5.214701723614787 1 0 1
454 2 0.1939980118557991 6.211242389371461 42.209488606266824 5.0431969898352165 0 0 1
474 2 0.1852474643012295 4.345620005850423 43.70505554587216 4.5494750134580135 0 0 1
458 1 -0.1529737940945305 6.120842742697901 42.62239527056383 4.064571066974356 0 0 1