LAMMPS data file via write_data, version 19 Nov 2024, timestep = 2000, units = real

5160 atoms
4 atom types

0.4403670249668261 7.559632975033285 xlo xhi
17.61468099868165 302.3853190013309 ylo yhi
2.531559934777402 43.45844006522076 zlo zhi
0 0 0 xy xz yz

Masses

1 12.0107
2 1.00794
3 15.999
4 14.0067

Atoms # charge

148 1 -0.01044199277844909 5.669890788876011 21.839085234295748 5.152236805865787 0 0 0
153 2 0.1721785799610769 6.9187114643617695 20.207476722139347 7.911329958251436 0 0 0
154 2 0.1518261662850678 5.467934567827143 19.630010055508208 4.6083425889141045 0 0 0
159 2 0.126533416264716 4.5233710772852636 19.1708851811211 6.914461423494895 0 0 0
161 1 -0.1063533143703655 3.907938271249255 19.97616089441445 7.374632221547227 0 0 0
158 1 -0.006718716154301543 4.405874146647529 21.348091361516655 7.2016793423628735 0 0 0
149 1 -0.3080501146147435 6.768898574890173 20.40881484464291 6.866205143589369 0 0 0
162 1 -0.1113130077016443 3.5144489518201674 22.35521681797757 7.734106447181052 0 0 0
155 1 0.0155833229532662 5.810001448116933 21.65126653821045 6.629075222537056 0 0 0
142 2 0.1502632708667918 6.403383634924663 19.485500929384603 6.428193110675084 0 0 0
151 2 0.1478098443952798 0.6233647069994195 20.548790723985128 6.432627199009065 1 0 0
157 2 0.1443295449625489 6.670873066680849 22.554496592281218 8.478100558961582 0 0 0
152 1 -0.3026900058582438 6.442972484035023 22.840918982580344 7.474668149425044 0 0 0
150 1 -0.1171103645551932 5.400275688481968 20.672694340222428 4.291532805358706 0 0 0
145 1 -0.1024880436916568 5.476328750481344 23.181607565590866 4.591159349165739 0 0 0
143 2 0.1305898086867939 5.566080268964363 24.031970435490543 5.316220307849614 0 0 0
156 2 0.1190794056956262 5.6909471982785975 23.719705339324058 7.632772661225523 0 0 0
146 1 -0.117313350501573 5.1739096230126265 20.870912121506453 2.909072719809328 0 0 0
144 2 0.1561155792431301 7.342219369933482 23.187011125733488 6.991566364640805 0 0 0
140 1 -0.1525315562397248 5.234427693903613 23.400279802689987 3.2425581718740064 0 0 0
160 2 0.1173936889436091 3.721598165841745 23.406348006409544 7.5687805449267245 0 0 0
277 2 0.1242294430132916 5.507210655454767 25.951408469776005 8.611337734312862 0 0 0
278 1 -0.1771527525071324 6.364990258020647 26.182100971569906 9.260110782851012 0 0 0
163 1 -0.1402352540788981 2.9394925260648765 19.592502573323397 8.330169528858896 0 0 0
414 2 0.1574814445259752 1.1859422799718424 25.17194196803765 4.88285398556244 1 0 1
412 1 -0.1303082983144508 7.555021385954727 25.944018260909324 5.067513655795867 0 0 1
165 2 0.1402137360590975 2.761742972415253 18.51848512221133 8.605534308483772 0 0 0
164 1 -0.177597102976239 2.4248544634785647 22.01843422894755 8.56334365663401 0 0 0
413 3 -0.5183015288117037 0.8508912228885375 25.86498188336111 7.411887296598009 1 0 1
279 1 0.2581150512804818 0.5808742296196491 26.08820941113816 8.713537548273166 1 0 0
285 2 0.1463363928548724 2.753675458735812 26.18680255349296 9.124384525510433 1 0 0
167 1 0.2426571186497765 2.1450284175139664 20.649966789887714 8.90809388635111 0 0 0
411 1 0.285328516106402 7.286089621105449 26.41960548836851 6.424479204087453 0 0 1
139 2 0.1509008803949602 5.1370592193986955 24.388274837744987 2.7700594283417384 0 0 0
121 2 0.1416690216575346 1.9905207870149502 18.71428738305767 2.800753651810727 -1 0 1
123 1 -0.1286569172160507 4.009950887978338 17.78251858532009 2.806434454024037 -1 0 1
409 1 -0.07885068985954162 6.925704330760584 26.4722126293605 3.911843036238108 0 0 1
410 2 0.1703567880751814 7.241335941746618 26.184644872635428 2.8844146639479717 0 0 1
166 2 0.1350142675577481 1.7826047604981974 22.77349615309897 8.983683224354472 0 0 0
416 1 -0.1671318863816763 3.154098363777237 35.107293423599586 5.896159855034342 1 0 0
546 1 -0.1608589315312105 1.6684305296418065 34.38013046693789 3.6094177806769743 1 0 1
406 1 -0.05276192770716236 5.8826168429240004 27.477436395060177 3.991118368396333 0 0 1
408 1 -0.1453500973349122 6.1999500911117265 27.387719149385767 6.554400900708018 0 0 1
407 2 0.1584196557916475 5.878898900085219 27.749785258827973 7.5637274258438545 0 0 1
423 2 0.1477054900899933 4.365025423399878 32.049081417788045 6.8054823519752325 1 0 0
398 3 -0.4414557009204824 3.1957177772481433 28.195319112548525 6.086579156534334 0 0 1
422 1 -0.1458079887322621 3.919072748090992 33.03154399115256 6.908865081678805 1 0 0
551 3 -0.5093181731362409 3.434054639561354 33.004168640644444 4.562672453826025 1 0 1
417 1 0.2528929362822459 3.5146602927250052 33.73020695871226 5.681270445064586 1 0 0
549 1 0.263152246902397 2.8416682123796715 33.58623348782109 3.4896425705364527 1 0 1
401 1 0.3716530636906946 4.021127878748556 28.370539133086208 5.248792950118101 0 0 1
405 1 -0.03937859518438079 5.425301833378161 27.76786099787742 5.40075254663608 0 0 1
404 2 0.1792926111525616 2.0238007340015853 30.26556143679165 5.155500572366314 0 0 1
397 2 0.1366548241848008 7.015804321298273 31.347399103917013 4.578703986325133 -1 0 1
399 1 -0.09268271663999164 1.754734958931604 30.241641468353805 4.106475498669169 0 0 1
400 4 -0.4193765110297568 3.731459350361031 28.680122817587424 3.724002483329616 0 0 1
395 1 0.1863641910526973 2.5974888295070517 29.50044967273905 3.217577599712674 0 0 1
396 1 -0.08975300088057087 0.5511582109480605 30.942230294469503 3.8106605574268633 0 0 1
426 1 -0.1133470731133691 3.618554253907265 33.47763371882078 8.204584461998461 1 0 0
424 1 -0.01482355647394387 3.0912402424814234 34.81686149946985 8.416360888675552 1 0 0
545 2 0.1563715414448963 1.1949805166133678 34.53963048599112 4.523495437603975 1 0 1
435 2 0.1331886935385177 1.0045935418177003 33.829821581102536 8.6228310598391 1 0 0
403 1 0.3934894168901298 5.020630292914476 28.220983915337456 2.9775100347749035 0 0 1
430 2 0.1327531856008013 3.860299229065996 32.88059248969829 9.063182168830059 1 0 0
284 1 -0.1327714736508787 1.7732592317124976 26.310028177904528 9.549233210725655 1 0 0
168 3 -0.5255625508857662 1.216465636437797 20.2546690259837 9.806826431140927 0 0 0
170 1 0.2536153073658112 0.9879785702660535 21.035294493858952 10.899351200823528 0 0 0
169 2 0.1458420320397463 2.9728641611696807 22.053882055119658 10.875120176402199 0 0 0
172 2 0.1678097474587575 6.140197771838664 20.077716530618176 11.265050510812426 -1 0 0
173 1 -0.1258816853969239 6.859370828428767 20.865878861719146 11.585551709143347 -1 0 0
171 1 -0.1450670303819847 1.943742122018721 22.021395385659016 11.358903253355319 0 0 0
175 2 0.1277173048262683 2.4190191084063213 23.589188884787134 12.790821447237573 0 0 0
174 1 -0.0884121795731688 1.6504036773370752 22.913764453779564 12.421697013313473 0 0 0
177 1 -0.05532358595110301 7.513501506240779 22.718229417230024 13.156313490374963 -1 0 0
176 1 -0.04904244026841952 6.5629998469905795 21.64698209657451 12.740568185860438 -1 0 0
180 1 0.3824408328303571 6.950135945677018 23.43219731403724 14.392907261468935 -1 0 0
181 4 -0.4600671934899606 5.480470003728338 22.831488558914614 14.65129481567225 -1 0 0
178 1 0.4045260070988612 5.336705428022606 21.60891958437429 13.706659252685188 -1 0 0
179 3 -0.4584223160693019 4.494555755512155 20.799360395317027 13.75022300999604 -1 0 0
303 2 0.16499556019428 3.719785246185233 25.122751568606304 14.530859459168195 0 0 0
301 1 -0.1428562137268104 4.217751640693954 26.067720754244903 14.465486766645169 0 0 0
297 2 0.1299845722426163 5.401792552517115 25.472181598698725 12.790185549543923 0 0 0
299 1 -0.1214627380958698 5.166478089470374 26.277839159388037 13.455128361946992 0 0 0
182 3 -0.5004913121553874 0.5115327965065095 24.16201745754799 15.03319657020808 0 0 0
183 2 0.1820460384709166 2.869275843143986 22.284555924033135 14.974382569388462 -1 0 0
280 2 0.1460633663849036 1.6466534193049693 25.987376547792135 13.368405862451654 1 0 0
184 1 0.1719316665013908 4.638763255487856 23.230187892286445 15.802247846073556 -1 0 0
185 1 -0.1131140560569837 3.245834808579857 22.88162763984792 15.85431919307745 -1 0 0
45 2 0.205041571100298 3.313786884388918 19.455279976030393 16.145543900430745 -1 0 0
292 2 0.1073182914789701 2.552548005620182 27.01717963646965 11.43969794337965 1 0 0
288 1 -0.1268792968538672 1.6523627250284818 26.821147679274507 10.840398309398005 1 0 0
305 1 0.2527856967230999 4.095644685210682 27.07536745070706 15.532007446609752 0 0 0
287 1 -0.287333217226182 1.1818790522827167 26.91921300964826 13.80526042027605 1 0 0
289 2 0.1312821676525703 2.0312435066442323 27.599132085285802 14.07589319561262 1 0 0
291 2 0.1984576070318653 0.6837802043980605 26.638960259759052 14.75436125472987 1 0 0
281 2 0.110631149128167 5.193497825129776 26.78932394617204 10.9350138746515 0 0 0
283 1 -0.1124874641539802 6.229073165972024 26.630632654093418 10.585372001662146 0 0 0
296 1 -0.01546868566605503 5.990070561536206 27.48704629294637 13.389896419913438 0 0 0
286 1 -0.004658682485981096 7.397327841503729 26.964668527692048 11.373560768588657 0 0 0
431 1 0.02386714255454961 2.8170169804887286 35.25980421018684 9.86267013425292 1 0 0
302 1 -0.1651686670553492 4.7553825026290575 28.384049957605114 15.350428431054542 0 0 0
293 1 0.01593179676494048 7.297195743251943 27.601216378980226 12.714407116771193 0 0 0
300 1 -0.1106997466756247 5.6606330855911136 28.581103675770592 14.30418446050216 0 0 0
436 2 0.1254241454400318 2.1759125338619594 34.75073974804421 12.755034619874918 1 0 0
441 2 0.1357497837202984 6.31794982287832 32.420222454809426 9.411953168687663 0 0 0
437 1 -0.104539755097421 0.8661609534302759 33.706200338678215 9.711431466995712 1 0 0
294 2 0.1581635995197405 6.896991313787425 29.754887638862193 12.353651813462328 0 0 0
439 1 -0.152552859955168 6.937865536039714 32.91440411780065 10.183325392137782 0 0 0
282 2 0.1384261182783469 1.3971744565663347 29.22433836240484 11.699486063139766 1 0 0
290 1 -0.3038609974418676 0.6615872795002106 29.090674253131223 12.548697739395465 1 0 0
443 1 0.2439239113403568 6.738600975764067 32.63858442999716 11.599967456512195 0 0 0
444 3 -0.5346192197741438 5.675562902052599 31.946879154279266 12.045300878920623 0 0 0
295 2 0.1190476898139129 1.1662437772561631 29.530049593402463 13.418855585752178 1 0 0
446 1 0.2561853197863456 5.111023053672942 32.236884140269474 13.240214340259197 0 0 0
445 2 0.1339773609487704 4.118639875958392 30.241777334709866 13.198372405699127 0 0 0
448 2 0.1452276714048021 5.844827938640399 34.345375336852925 13.464327085893675 0 0 0
298 2 0.1356093766254394 6.206127302835385 29.57825415203306 14.31450893375284 0 0 0
449 1 -0.1554313023998138 5.200339653293915 33.53372018791407 13.861085747825994 0 0 0
447 1 -0.1520710460127118 4.2325223278263415 31.198906811884882 13.739493567605304 0 0 0
450 1 -0.08538615395910643 3.53336651634155 31.425585541836696 14.944206819945867 0 0 0
452 1 -0.05687022520817023 4.5936518072407235 33.81713580913224 15.116886442783775 0 0 0
442 2 0.1466375870358885 0.4918605017364344 33.05771344491041 13.577546700337882 1 0 0
440 1 -0.1577910621279071 0.5809265088973845 33.317359181909396 12.494273943798406 1 0 0
438 1 -0.1015733749954513 1.5205518049943745 34.22421201424514 12.05229928130902 1 0 0
434 1 -0.01514736749293485 1.7649211209800304 34.44948215914452 10.60823235739288 1 0 0
453 1 -0.04386677532853712 3.6724648317227944 32.69710085755479 15.57666136051372 0 0 0
451 2 0.1353222104819519 2.812600132922709 30.652430913857962 15.319842630697513 0 0 0
427 2 0.149996281037865 4.617649396618562 34.1013532124242 10.644014519794613 1 0 0
304 2 0.1747817354059064 4.620868614608956 29.160108947831286 16.077272357280172 0 0 0
425 1 -0.2907847418410212 4.2080051475573335 35.17716102547878 10.631974455220266 1 0 0
454 1 0.3740560719413792 4.4242899506022875 34.95639437602965 16.108447924174207 0 0 0
63 1 -0.06308729347022994 7.06210673404619 24.213498312515018 22.913465555901016 -1 0 0
46 1 0.1868245955941351 4.921006082866164 19.353742592663036 17.723316439136074 -1 0 0
48 2 0.2101640345572507 6.333190399260334 19.849529020191337 19.39149921797604 -1 0 0
49 1 -0.1390529903433005 5.336854578854251 20.048084118443608 18.92003995322653 -1 0 0
51 2 0.1517461949117797 1.7568409711577733 20.77176838474082 17.65030672053871 -1 0 0
53 1 -0.1105883186815209 3.1658587375546916 20.95488103779646 19.221546504243122 -1 0 0
55 4 -0.4266641738230381 4.859599074566264 21.585498897647497 21.02305570061655 -1 0 0
57 1 0.4175361874645029 6.111358071805108 22.435268769210055 21.09921852907248 -1 0 0
60 1 -0.05183848547406444 6.076988377260776 23.331931650079923 22.32057966245985 -1 0 0
186 2 0.2346986658324575 6.247760297570382 24.44771590956186 16.70627995543961 -1 0 0
187 1 -0.1276386610870403 5.200209360609956 24.07210928137951 16.820274074740816 -1 0 0
188 1 -0.06307622901563549 2.4278411718505364 23.280256686285703 16.93534661330144 -1 0 0
196 3 -0.4657372983880645 3.152905487273157 25.129796730005708 20.614881024405722 -1 0 0
192 3 -0.4370427250773722 7.375373057834796 25.988777562650156 18.46961801396408 -1 0 0
195 1 0.3881906783830028 6.573378841897242 25.79569819305572 19.319271511199513 -1 0 0
197 1 0.3909994940224642 4.318291404925933 25.4025353059546 20.418798200544067 -1 0 0
199 1 -0.05226470432895296 5.169444525580282 26.250069946173085 21.365221034483717 -1 0 0
193 4 -0.4068026696501011 5.180947333142467 25.002870007949618 19.223620459908958 -1 0 0
190 1 0.1956712391753573 4.47924822103942 24.441958622408116 18.012710173116304 -1 0 0
191 1 -0.08872312403387998 3.108476236718159 24.043405028359054 17.95962662212724 -1 0 0
194 2 0.2283077187737251 2.4146655757729807 24.293339631118116 18.728066785960074 -1 0 0
189 2 0.1725093345543279 1.359365133761043 23.02558318906724 17.020146462161705 -1 0 0
62 2 0.1792339329531176 0.8669404338890516 24.388089799226513 22.418057387499342 0 0 0
59 1 0.3926755660225444 3.9675372465030123 22.017394408470942 22.273716185392207 -1 0 0
58 3 -0.4678454347967485 3.0601379097962824 21.43174053578678 22.79763407581357 -1 0 0
54 3 -0.44898435525005 6.988613854962636 22.349421050795574 20.283046259972167 -1 0 0
56 2 0.194584448657849 2.3869456869477976 21.485997332695895 19.776669662651017 -1 0 0
52 1 0.1747413688613422 4.474052258929262 20.855181302883935 19.736472674810322 -1 0 0
50 1 -0.07176391323253986 2.7459425197834113 20.455911026651844 17.94679333465988 -1 0 0
47 1 -0.09352966218280642 3.6633972784249185 19.700034150567493 17.14844047221157 -1 0 0
5096 2 0.167479215621632 1.3896025175968338 18.799422045833705 22.32368459095231 0 1 0
5095 2 0.1355265867836843 5.906352176950142 18.870042566750648 22.867569943002852 -1 1 0
5091 2 0.1711590229264849 4.245325761365674 18.475510535100227 21.112066763899765 -1 1 0
5098 1 -0.1102832248280859 5.844179686987375 17.891093160950728 22.437052786923836 -1 1 0
43 4 -0.4186160173212158 5.668139116512554 18.13371600597156 17.302304538441682 -1 0 0
198 1 -0.05790393782536243 6.510424369559269 26.464637921045238 20.696281285471493 -1 0 0
44 3 -0.4463806290454146 0.7388014322634496 18.110944284059272 18.71732740507899 0 0 0
42 1 0.3681991700661653 7.126776268950608 17.674676084305826 17.855524665910703 -1 0 0
5101 1 -0.2853928123082021 1.7791994714788992 17.870002923224323 22.78555467087796 0 1 0
5093 1 -0.136907372476199 4.909553321906979 17.644282621743425 21.4167071358079 -1 1 0
61 1 -0.03903177807056535 4.727892128424639 23.13590758756297 22.993970457183824 -1 0 0
326 1 -0.05970334853559836 4.283273779799453 33.41473988417201 20.0844372243669 -1 0 0
324 2 0.2101039982228556 0.9363352006035721 33.35277039126257 21.03999184491699 0 0 0
456 1 0.3945287146677752 3.023160975036666 33.16885727792675 16.893509870045285 0 0 0
316 1 0.409185281305165 7.250037293074965 30.268740899412172 18.408723324612957 -1 0 0
322 1 0.181415365778698 6.482674249807542 32.17507970725181 20.073494115195512 -1 0 0
325 1 -0.1477588029123564 7.003173165044849 33.319063228870526 20.757008780792425 -1 0 0
329 1 -0.1050863878878859 4.843335444062227 34.403278656620856 20.917534875451125 -1 0 0
306 3 -0.4785251604226761 3.2409226468228134 26.7951058936344 16.494577583490347 0 0 0
457 4 -0.4198806846418136 3.365044969581015 34.61529865115752 17.18853640242577 0 0 0
310 2 0.1645695910755168 1.1103326215659213 28.384546525120435 16.400907402121724 0 0 0
319 4 -0.4198671877141289 7.241620603358947 30.89605748548759 19.818119232363745 -1 0 0
312 1 -0.08555773962262804 3.544895989150152 28.994769053813975 19.53426824674277 0 0 0
321 2 0.2050286033706624 4.613199557561428 31.54606958808618 19.068323224513847 -1 0 0
328 1 0.1663093812672632 6.216708315766078 34.38355912335348 21.278165101208884 -1 0 0
314 1 -0.03219255109430071 1.490158945161145 29.58158318805853 18.1918197672778 0 0 0
313 2 0.1542815939088102 4.2350205281120745 29.061348921500674 20.39387391530925 0 0 0
318 1 0.3878690039818518 1.6171667309644473 30.75782827231835 20.30509249235399 0 0 0
459 2 0.192462995178141 0.464725770465263 34.63595525243447 17.618757416370112 0 0 0
317 3 -0.4629609772442514 6.349614312436219 30.430216822437572 17.637367626135017 -1 0 0
315 1 -0.05054398414110592 2.3897861512760983 29.86449624619903 19.37778429044526 0 0 0
308 1 0.2438251557643336 3.0251132427873033 27.844583739417978 17.372011997456532 0 0 0
307 2 0.1839273535852959 4.820819837359517 27.527258551036837 18.643333492400327 0 0 0
309 1 -0.1222097096172905 3.8925927779738525 28.070119939439405 18.512449754475835 0 0 0
458 3 -0.4578532132301106 2.3396174060803094 32.44602660062252 17.546248241920573 0 0 0
201 1 -0.07407366094335092 7.50842307114135 27.22938165580701 21.370295542940685 -1 0 0
200 2 0.1708701523309138 1.3738416199931929 27.30830263162691 20.89695304266373 0 0 0
311 1 -0.1246253669026726 1.8136211867021388 28.582145116537433 17.215619513996288 0 0 0
323 1 -0.09547144060633436 5.121032425290429 32.340563259000135 19.669984090185036 -1 0 0
202 1 -0.1374490332408239 4.867989391289382 26.87428053186983 22.616320318101845 -1 0 0
320 3 -0.4685889535694183 2.1022686817006115 31.35840046115262 21.22653738660196 0 0 0
327 2 0.1939348157436702 3.2462516854368784 33.49298693266894 19.796701559904793 -1 0 0
204 1 -0.1614709689518875 7.282648559560983 27.779573038591742 22.653289785487473 -1 0 0
332 2 0.2092220508018349 4.270994189522905 35.29395936002757 21.229432056064354 -1 0 0
331 4 -0.4415114330071149 6.622186783708038 35.33668057499732 22.417214366501288 -1 0 0
80 1 -0.01197284751611993 7.000761084284943 25.939215241099276 29.522698928835066 -1 0 0
83 1 -0.1079774325732277 0.6153286611810909 25.24738005846923 28.488975556289258 0 0 0
88 2 0.1160041315815503 1.5833111660321653 24.767693861599888 28.709691573409252 0 0 0
72 1 0.2567271256732792 5.932947832601847 25.638234253225114 26.88590285073053 -1 0 0
77 1 -0.163110374610786 7.231736108976312 25.063167030449673 27.18569449233303 -1 0 0
78 2 0.135660225230789 0.6588122213065821 24.48909297868059 26.411430965827577 0 0 0
70 3 -0.5044239439981123 5.086606706268064 25.345497148807297 25.85301784193575 -1 0 0
67 1 0.2681373117167066 5.511035420249264 24.68798504910551 24.770462343441192 -1 0 0
65 2 0.1637663699651532 3.5851647518808827 23.653556761978408 24.77601257009382 -1 0 0
68 2 0.1440199231157909 7.520916297714735 25.583613850165644 24.4998160731265 -1 0 0
64 1 -0.1244053988502207 4.500855839969774 23.851433805817255 24.215310400321247 -1 0 0
66 1 -0.1599449796537616 6.812071545675025 24.868710670327545 24.133869266571857 -1 0 0
5106 2 0.1322977790902689 7.459604331994434 19.35453545395034 24.28967618945448 -1 1 0
5097 2 0.1287877859303149 1.1783893889417003 18.48770630070518 25.64685031038588 0 1 0
5103 1 -0.2980891998881021 7.5101846135877794 18.35838717656063 24.791734092597302 -1 1 0
5104 2 0.1384478338165446 2.722477236631926 18.196267905831665 23.33320813007968 0 1 0
5108 2 0.120788937747344 6.481155822782919 18.200169386607794 25.253426501776858 -1 1 0
71 1 -0.1223250805570721 5.219533600677802 26.455832426319816 27.849026548872768 -1 0 0
76 1 -0.1248525981737546 5.720611011923092 26.543258815324336 29.169607667352714 -1 0 0
69 2 0.1432073838683678 4.2882652948090225 26.99591311000244 27.631342407938057 -1 0 0
203 2 0.1726571838710304 3.950352024842235 26.765287670158017 23.098448686631937 -1 0 0
208 3 -0.4983941131551931 5.574032535175435 28.44178214916977 24.22920030333299 -1 0 0
216 2 0.1484558150298365 0.7141752963033373 28.063999535535086 25.594598921541206 0 0 0
215 1 -0.1512417292316037 0.5672920105818007 29.060594964908837 25.3225421629409 0 0 0
210 1 0.2265282522075379 6.550828482902558 29.4161843797727 24.56149872928429 -1 0 0
226 2 0.1246504403342739 2.3095760712881335 29.80639025723886 26.371323536967434 0 0 0
221 1 -0.1052678427762108 1.5028884241159794 30.069192771147037 25.756375312295724 0 0 0
223 2 0.130633496617013 4.14276019679561 31.447373847287075 26.036115290515024 0 0 0
212 2 0.1566595328483094 3.981669375853968 32.29845371048584 24.585143871506016 0 0 0
218 1 0.004060704387743787 1.37043053421306 31.451656742754604 25.31599593545864 0 0 0
217 1 -0.2980070546954305 3.791635052988012 32.4402677622843 25.670970754525154 0 0 0
228 2 0.1092234867362334 3.081020792672661 31.119843293872812 28.0951102068372 0 0 0
230 1 -0.1073517402044708 2.446037892399056 31.97217460573092 28.350569063420664 0 0 0
227 1 -0.002391941798271787 1.9324181483821887 32.84961297603245 27.285799987905246 0 0 0
231 1 -0.1194863464046899 1.0666100963459768 33.912931805868794 27.783224301223946 0 0 0
229 2 0.1176520262685464 0.5742113195775553 34.59741567618643 27.080409068138945 0 0 0
233 1 -0.1308766996464545 0.7313756895927741 34.10120315399959 29.137073437860256 0 0 0
225 1 0.0149921545095263 2.2388610285109065 32.62097479468039 25.825479399264786 0 0 0
220 2 0.1468717897572772 4.380847177524527 33.289437117351426 26.05935217186212 0 0 0
219 1 -0.2950703704321438 1.8467217413380788 33.93015520238463 25.114752033689058 0 0 0
224 2 0.1606275403002822 2.3960715961554646 34.85648422254996 25.40769027823612 0 0 0
222 2 0.1308054647350433 0.7840544126758278 34.09573313855033 25.292618624246895 0 0 0
214 1 -0.09569832703079056 7.352502277603422 31.817326085043035 24.48734562558671 -1 0 0
209 1 -0.1369988935571596 6.4379028364248745 30.79020701918712 24.15604590734139 -1 0 0
213 2 0.175312313347968 2.046674025657298 33.87925650337044 24.00430081481827 0 0 0
211 2 0.1400181158612719 7.225675880153387 32.832249833701525 24.107044214170205 -1 0 0
205 1 0.2700407100983702 5.88592933630557 27.731033663668946 23.18945805280736 -1 0 0
206 2 0.1481833661766629 1.001638038358412 28.36393966695985 23.12342283314286 0 0 0
235 2 0.1530189909577248 7.10061847200652 34.87793257317533 29.422497778792163 -1 0 0
232 1 -0.1810374776596802 2.173057103037707 32.15334904795775 29.71851594061142 0 0 0
207 2 0.1565083187429082 5.583460354519642 31.012302483907952 23.517708377134817 -1 0 0
334 3 -0.4844245557720431 4.6220940823624055 35.28324838547689 23.883323794842518 -1 0 0
85 2 0.130403753878041 2.1083880734824074 24.81993843491584 30.569003545962897 0 0 0
90 2 0.134784305454246 5.786417302611474 23.986322324161968 30.351594965163027 -1 0 0
87 1 0.01483571081691778 7.469072169630899 26.1347625047728 30.92891681865494 -1 0 0
79 1 -0.30832350242795 1.9051354220744312 25.8440479030753 30.879162475065467 0 0 0
89 1 -0.006986757381186363 6.857818002352992 25.174898880699846 31.861983066105108 -1 0 0
92 1 -0.1038242291737425 6.017235883806695 24.102110318532766 31.40951590763423 -1 0 0
93 1 -0.092546956427928 7.080787976065635 25.1846944423419 33.31211979917011 -1 0 0
94 1 -0.1322125755920474 5.368441972650477 23.196929204416215 32.29268806807383 -1 0 0
96 2 0.152005905944156 4.739288270574073 22.394327006957983 31.906620336189775 -1 0 0
98 1 0.2351362589715924 5.499318237843242 23.2348938549698 33.72955649021628 -1 0 0
100 2 0.1502206483312391 7.22970540805872 21.88737955121013 35.159793367673004 -1 0 0
99 3 -0.4914874351663227 4.714021018723183 22.399217566914338 34.52215334964484 -1 0 0
102 1 -0.1593666047123907 6.528124029979445 21.56412830946538 35.8750634141077 -1 0 0
101 1 0.2517038509949523 5.106326915303553 21.957752978119153 35.71829889665433 -1 0 0
104 1 -0.1250331875237219 4.050853677088226 21.63711896945524 36.629055356447125 -1 0 0
103 2 0.1668630258907509 2.9943761774277804 21.941138226358095 36.44034988323011 -1 0 0
95 1 -0.1413969317565102 6.381464812928157 24.28459013863192 34.17885912224513 -1 0 0
91 2 0.1484268462324773 0.6428610280540056 25.890042711404206 33.70831551069932 0 0 0
97 2 0.1526016215112448 6.5337803209210445 24.341628786776937 35.262958650169026 -1 0 0
82 2 0.135020956618149 2.4222412768311186 26.00858015790592 31.858469531551947 0 0 0
73 2 0.1071159974993268 5.180240102293819 27.093702639140773 29.978129429052508 -1 0 0
74 2 0.1136630059253283 2.4338551124449053 26.547153559350605 30.161576977240312 0 0 0
75 2 0.1272739035323519 7.149129566468881 28.35879457404706 30.5898625039285 -1 0 0
84 2 0.1328201174392968 6.188467077939835 27.666703268058285 31.929934518260602 -1 0 0
81 1 -0.3150373057676925 7.185091696893888 27.637887847607512 31.396130415842354 -1 0 0
86 2 0.1374589053281282 0.8124210034556341 27.92662572046658 32.158497269647896 0 0 0
236 1 0.2590870369428477 1.2407687532502019 33.20447082250595 30.16490940296133 0 0 0
234 2 0.1284011229354297 2.5260352007345306 31.44899293526329 30.3817848699862 0 0 0
237 3 -0.5165024690622033 0.5755407864381892 33.31877867266854 31.312890551789987 0 0 0
238 2 0.1289323938004066 3.1066233199711633 32.75222704284637 31.90651097038211 0 0 0
239 1 0.2621391493461753 0.9715947903039287 32.66500748231429 32.42889970967647 0 0 0
240 1 -0.1695701497214481 2.364941460283867 32.33684717522881 32.601251864291626 0 0 0
376 2 0.1544519213080939 2.3178957286930064 33.57363792068242 35.837321962247515 0 0 0
244 2 0.1620974794674088 3.8480737758459926 31.21778868841504 33.75178056215617 0 0 0
243 1 -0.08802759037202584 2.8065863297545666 31.492481517396662 33.65650435166138 0 0 0
242 1 -0.1387337068765745 7.103343386615962 32.27050177850269 33.39939908373324 -1 0 0
241 2 0.1513998661664511 6.104814137039169 32.7398039620366 33.32583680189914 -1 0 0
249 1 0.3837039109750366 1.8836271806851592 29.893143607307877 35.626981297988195 0 0 0
246 1 -0.04892376469906402 1.7874853481839066 30.984059668524267 34.56070774283246 0 0 0
247 1 0.3838201896778911 6.6087535928768 30.77739687526026 35.58672385194295 -1 0 0
245 1 -0.0494684286843713 7.462001351002835 31.379097271141525 34.46684028427515 -1 0 0
251 3 -0.4349452923585344 2.8339314360138257 29.18214146415793 35.78604606318771 0 0 0
248 3 -0.4669284761497667 5.463456858699529 31.066907075940385 35.807695048790535 -1 0 0
250 4 -0.4115647719306027 0.5733726354941516 29.90387834072543 36.43875018553584 0 0 0
375 3 -0.490524394397634 7.303408513441412 35.1696663145793 36.50087668815294 -1 0 0
105 1 -0.07351626588051453 6.924887757836942 20.776189725022878 36.96729696672972 -1 0 0
106 2 0.183721726299184 0.8094062664946227 20.39040281246605 37.212577037466005 0 0 0
147 2 0.1796334197440478 5.051029376394914 20.010366068509082 43.17099563570528 0 0 -1
141 1 0.2376152428789893 5.166102827790931 22.221380174128882 43.29978884425631 0 0 -1
269 2 0.1630635804016591 3.3071146654244075 23.457487355607434 42.361946580490354 0 0 0
107 1 -0.0509386848460232 4.447764251612248 20.958172248351403 37.832992505995705 -1 0 0
108 1 -0.04678797753817851 5.885917461561152 20.544743074346833 37.97432441103669 -1 0 0
109 1 0.3923544177884832 3.6616956340216307 20.57290490617685 39.09152756565845 -1 0 0
111 1 0.3920021465873669 6.026979889892874 19.726486631076174 39.239731680446255 -1 0 0
113 3 -0.4166581992914724 7.006737295789528 19.123804250828783 39.51993350776182 -1 0 0
110 3 -0.4335184457679686 2.471739566031636 20.66049612298761 39.20476989888587 -1 0 0
112 4 -0.3903471590453433 4.6563586110632516 19.85923181144091 40.056687476466976 -1 0 0
114 1 0.1754170826443577 4.202281264756089 18.839676198442 41.037691589337996 -1 0 0
116 2 0.2142097086982744 2.1922372341797876 19.538009205165 41.34761373490282 -1 0 0
118 1 -0.1064613098352706 3.0258549904802483 18.977443250170317 41.82524717865367 -1 0 0
120 1 -0.1037019296781433 2.9086009493375333 18.531535490678262 43.17082644193492 -1 0 0
275 3 -0.4614198090100303 5.624010156598651 22.22555259021026 42.034954164566145 0 0 0
273 1 0.264699431947617 5.1008111866440204 23.064082996401826 41.10765095907733 0 0 0
270 1 -0.1332871239788208 3.7678770991085395 23.56189072227368 41.38105023688746 0 0 0
276 2 0.191610083856128 6.761058447106677 22.821199031760223 39.70955188737602 0 0 0
274 1 -0.1152868986462043 5.741384047929111 23.159192507990532 39.81755374473066 0 0 0
117 1 -0.1310516510919167 5.174077894459649 17.922199327940334 41.609819994520535 -1 0 0
271 1 -0.09099684044601974 5.094883185047918 23.796999054202217 38.726572651491594 0 0 0
272 2 0.1534729229256803 5.586917705066227 23.95745945388688 37.79364650610293 0 0 0
267 1 -0.03162831277012099 3.053540932309485 24.090297424114624 40.255817555709214 0 0 0
268 1 -0.05804069420439219 3.7448302006277703 24.32951861280823 38.9483907310193 0 0 0
263 1 0.381747605742376 1.6925192575705537 24.811718152486176 40.18425386398907 0 0 0
260 3 -0.4499809832787477 0.9269993228682492 24.93153166967108 41.108709774735416 0 0 0
265 1 0.3823847351372788 2.947710853758974 25.362126887264015 38.160399209837024 0 0 0
264 3 -0.4379845793516641 3.3274213038033142 25.81412783683821 37.13349084466978 0 0 0
262 4 -0.4433695855405803 1.6024093971230549 25.594684427828135 38.87797848571367 0 0 0
266 2 0.1831441840662032 6.0431681316522035 25.96112132627859 39.734664498491895 -1 0 0
115 2 0.2429953178591052 6.004829353629323 17.683976759862336 40.96488647031563 -1 0 0
543 1 -0.03719376817905026 1.1568183495950932 34.96125037206402 43.31055733637699 1 0 0
389 3 -0.4434988996833515 3.240319104849031 30.384330234569795 39.88262279533558 0 0 0
540 3 -0.468026097314071 1.5753599579732025 35.38598110140171 39.717966100552744 1 0 0
384 1 -0.04184014125021883 1.7079702337300189 31.90346428112101 38.75048072226173 0 0 0