 LAMMPS data file, charge style generated xyz_lammps.py by Wenchang Lu 

5160 atoms
4 atom types

0.000000   8.000000   xlo xhi 
0.000000   326.000000   ylo yhi 
0.000000   45.990000   zlo zhi 
0.000000   0.000000   0.000000  xy xz yz 

Masses

3  15.999000
2  1.007940
1  12.010700
4  14.006700

Atoms # charge

1 1 0.0 2.009989 2.239998 4.883560 
2 1 0.0 2.615116 3.302638 4.192026 
3 1 0.0 3.134522 3.119791 2.879349 
4 1 0.0 3.121958 1.838882 2.342486 
5 1 0.0 1.868951 0.991311 4.260761 
6 1 0.0 2.458419 0.795703 2.988819 
7 1 0.0 3.785427 1.351868 1.077579 
8 4 0.0 3.293400 -0.088054 0.862359 
9 1 0.0 0.654546 -2.941935 21.005406 
10 2 0.0 2.746456 4.244346 4.731864 
11 2 0.0 3.573512 3.937733 2.315653 
12 2 0.0 1.359569 0.189146 4.791898 
13 3 0.0 1.775886 -1.384673 2.268010 
14 1 0.0 2.444949 -0.393105 2.069729 
15 3 0.0 4.482452 1.988728 0.313186 
16 1 0.0 1.555497 2.436717 6.284470 
17 1 0.0 1.160077 3.703807 6.724234 
18 1 0.0 0.691846 3.926006 8.052100 
19 1 0.0 0.646291 2.840888 8.907676 
20 1 0.0 1.524369 1.349352 7.181942 
21 1 0.0 1.062271 1.594063 8.480771 
22 1 0.0 0.161439 2.739444 10.320945 
23 4 0.0 0.358343 1.410912 10.688847 
24 3 0.0 -0.343234 3.593786 11.045747 
25 2 0.0 1.183662 4.524761 6.000671 
26 2 0.0 0.347660 4.884467 8.410686 
27 2 0.0 1.846811 0.358024 6.900464 
28 3 0.0 1.128720 -0.539247 9.622982 
29 1 0.0 0.887722 0.650970 9.611478 
30 1 0.0 0.741709 -1.727164 21.686245 
31 2 0.0 1.412434 4.969625 41.156789 
32 2 0.0 0.073716 -4.367928 17.729617 
33 1 0.0 -0.255881 -0.556633 17.427601 
34 1 0.0 -0.792898 -1.377579 16.416661 
35 1 0.0 -0.662780 -2.745386 16.492967 
36 1 0.0 -0.021197 -3.300879 17.624223 
37 1 0.0 0.506518 -2.487807 18.646142 
38 1 0.0 0.395586 -1.111908 18.551941 
39 1 0.0 2.864814 0.068049 44.143199 
40 2 0.0 0.012142 -4.973515 21.047165 
41 3 0.0 1.195813 -3.106018 19.706483 
42 2 0.0 -2.909394 0.410229 13.717078 
43 1 0.0 -1.876299 0.378394 13.417870 
44 1 0.0 -1.429246 0.953536 12.219793 
45 2 0.0 -1.094967 -4.710874 23.378162 
46 1 0.0 -0.085194 0.873033 11.927207 
47 3 0.0 -1.589155 -0.835803 15.397260 
48 1 0.0 0.812769 0.242525 12.784377 
49 2 0.0 1.846794 0.194213 12.476051 
50 1 0.0 0.367087 -0.346487 13.994368 
51 2 0.0 1.053834 -0.870279 14.663946 
52 1 0.0 -0.985272 -0.268033 14.286738 
53 2 0.0 -1.089915 -3.373762 15.695524 
54 2 0.0 -0.367012 0.512377 17.349210 
55 1 0.0 0.116926 -1.590248 22.946855 
56 1 0.0 -0.538061 -2.680713 23.500417 
57 2 0.0 0.110426 -0.644515 23.490561 
58 1 0.0 -0.559356 -3.908170 22.878216 
59 2 0.0 0.802743 -0.464848 19.339457 
60 1 0.0 0.048310 -4.041296 21.603101 
61 2 0.0 -2.098129 1.465697 11.521376 
62 1 0.0 -2.680272 0.210255 28.130679 
63 1 0.0 -3.669675 0.529816 27.173099 
64 1 0.0 -3.766043 -0.133182 25.925505 
65 1 0.0 -2.827750 -1.090711 25.693590 
66 1 0.0 -1.761271 -0.800933 27.909758 
67 1 0.0 -1.850811 -1.419281 26.654837 
68 1 0.0 -2.529004 -1.720147 24.379761 
69 4 0.0 -1.357790 -2.450938 24.638737 
70 1 0.0 2.495423 1.108997 43.262372 
71 2 0.0 -4.347553 1.332474 27.408302 
72 2 0.0 -4.482452 0.108017 25.126757 
73 2 0.0 -0.949875 -0.998288 28.622163 
74 3 0.0 0.163606 -2.722372 26.461566 
75 1 0.0 -0.874945 -2.288827 25.994447 
76 3 0.0 -3.085573 -1.583664 23.265515 
77 2 0.0 -3.937519 3.748502 35.099700 
78 1 0.0 -2.542852 1.042349 29.330186 
79 1 0.0 -2.557714 2.414069 29.112475 
80 1 0.0 -2.440990 3.280149 30.215127 
81 1 0.0 -2.330974 2.707050 31.496111 
82 1 0.0 -2.399412 0.467835 30.637334 
83 1 0.0 -2.312495 1.343080 31.714090 
84 1 0.0 -2.233539 3.387505 32.818511 
85 4 0.0 -2.186351 2.363694 33.800738 
86 3 0.0 -2.197730 4.585305 33.024431 
87 2 0.0 -2.639128 2.797472 28.065926 
88 2 0.0 -2.441803 4.348271 30.107455 
89 2 0.0 -2.407581 -0.599337 30.805103 
90 3 0.0 -2.190954 0.044385 33.825745 
91 1 0.0 -2.221162 1.098922 33.202694 
92 1 0.0 1.973036 2.299105 43.773036 
93 3 0.0 1.798644 3.362915 42.926523 
94 2 0.0 -0.222855 1.458472 42.992901 
95 1 0.0 -0.328726 4.182124 40.107257 
96 1 0.0 -1.264319 3.163659 40.181611 
97 1 0.0 -1.215558 2.190124 41.186163 
98 1 0.0 -0.225013 2.206303 42.182915 
99 1 0.0 0.710218 3.223271 42.091708 
100 1 0.0 0.656342 4.206288 41.090611 
101 2 0.0 1.622654 1.554456 46.986398 
102 2 0.0 3.389825 -0.759636 43.654691 
103 2 0.0 2.652300 1.062098 42.145598 
104 2 0.0 -3.931895 4.176157 37.670819 
105 1 0.0 -3.182696 3.570278 37.175487 
106 1 0.0 -3.178747 3.345619 35.773719 
107 1 0.0 -2.175739 2.570774 35.219204 
108 3 0.0 -2.383731 3.168568 39.368144 
109 1 0.0 -1.183180 2.000109 36.012543 
110 2 0.0 -0.446951 1.371668 35.518164 
111 1 0.0 -1.184841 2.219343 37.427116 
112 2 0.0 -0.425114 1.785279 38.080901 
113 1 0.0 -2.202713 2.991946 37.985442 
114 2 0.0 -2.003382 1.457952 41.205555 
115 2 0.0 -0.373528 4.973515 39.348762 
116 1 0.0 1.587086 2.417300 45.127326 
117 1 0.0 1.754509 1.315358 45.914579 
118 2 0.0 1.400214 3.349614 45.670625 
119 1 0.0 2.538808 0.215849 45.557890 
120 2 0.0 1.258075 -0.892652 21.232156 
121 1 0.0 2.009989 10.239998 4.883560 
122 1 0.0 2.615116 11.302638 4.192026 
123 1 0.0 3.134522 11.119791 2.879349 
124 1 0.0 3.121958 9.838882 2.342486 
125 1 0.0 1.868951 8.991311 4.260761 
126 1 0.0 2.458419 8.795703 2.988819 
127 1 0.0 3.785427 9.351868 1.077579 
128 4 0.0 3.293400 7.911946 0.862359 
129 1 0.0 0.654546 5.058065 21.005406 
130 2 0.0 2.746456 12.244346 4.731864 
131 2 0.0 3.573512 11.937733 2.315653 
132 2 0.0 1.359569 8.189146 4.791898 
133 3 0.0 1.775886 6.615327 2.268010 
134 1 0.0 2.444949 7.606895 2.069729 
135 3 0.0 4.482452 9.988728 0.313186 
136 1 0.0 1.555497 10.436717 6.284470 
137 1 0.0 1.160077 11.703807 6.724234 
138 1 0.0 0.691846 11.926006 8.052100 
139 1 0.0 0.646291 10.840888 8.907676 
140 1 0.0 1.524369 9.349352 7.181942 
141 1 0.0 1.062271 9.594063 8.480771 
142 1 0.0 0.161439 10.739444 10.320945 
143 4 0.0 0.358343 9.410912 10.688847 
144 3 0.0 -0.343234 11.593786 11.045747 
145 2 0.0 1.183662 12.524761 6.000671 
146 2 0.0 0.347660 12.884467 8.410686 
147 2 0.0 1.846811 8.358024 6.900464 
148 3 0.0 1.128720 7.460753 9.622982 
149 1 0.0 0.887722 8.650970 9.611478 
150 1 0.0 0.741709 6.272836 21.686245 
151 2 0.0 1.412434 12.969625 41.156789 
152 2 0.0 0.073716 3.632072 17.729617 
153 1 0.0 -0.255881 7.443367 17.427601 
154 1 0.0 -0.792898 6.622421 16.416661 
155 1 0.0 -0.662780 5.254614 16.492967 
156 1 0.0 -0.021197 4.699121 17.624223 
157 1 0.0 0.506518 5.512193 18.646142 
158 1 0.0 0.395586 6.888092 18.551941 
159 1 0.0 2.864814 8.068049 44.143199 
160 2 0.0 0.012142 3.026485 21.047165 
161 3 0.0 1.195813 4.893982 19.706483 
162 2 0.0 -2.909394 8.410229 13.717078 
163 1 0.0 -1.876299 8.378394 13.417870 
164 1 0.0 -1.429246 8.953536 12.219793 
165 2 0.0 -1.094967 3.289126 23.378162 
166 1 0.0 -0.085194 8.873033 11.927207 
167 3 0.0 -1.589155 7.164197 15.397260 
168 1 0.0 0.812769 8.242525 12.784377 
169 2 0.0 1.846794 8.194213 12.476051 
170 1 0.0 0.367087 7.653513 13.994368 
171 2 0.0 1.053834 7.129721 14.663946 
172 1 0.0 -0.985272 7.731967 14.286738 
173 2 0.0 -1.089915 4.626238 15.695524 
174 2 0.0 -0.367012 8.512377 17.349210 
175 1 0.0 0.116926 6.409752 22.946855 
176 1 0.0 -0.538061 5.319287 23.500417 
177 2 0.0 0.110426 7.355485 23.490561 
178 1 0.0 -0.559356 4.091830 22.878216 
179 2 0.0 0.802743 7.535152 19.339457 
180 1 0.0 0.048310 3.958704 21.603101 
181 2 0.0 -2.098129 9.465697 11.521376 
182 1 0.0 -2.680272 8.210255 28.130679 
183 1 0.0 -3.669675 8.529816 27.173099 
184 1 0.0 -3.766043 7.866818 25.925505 
185 1 0.0 -2.827750 6.909289 25.693590 
186 1 0.0 -1.761271 7.199067 27.909758 
187 1 0.0 -1.850811 6.580719 26.654837 
188 1 0.0 -2.529004 6.279853 24.379761 
189 4 0.0 -1.357790 5.549062 24.638737 
190 1 0.0 2.495423 9.108997 43.262372 
191 2 0.0 -4.347553 9.332474 27.408302 
192 2 0.0 -4.482452 8.108017 25.126757 
193 2 0.0 -0.949875 7.001712 28.622163 
194 3 0.0 0.163606 5.277628 26.461566 
195 1 0.0 -0.874945 5.711173 25.994447 
196 3 0.0 -3.085573 6.416336 23.265515 
197 2 0.0 -3.937519 11.748502 35.099700 
198 1 0.0 -2.542852 9.042349 29.330186 
199 1 0.0 -2.557714 10.414069 29.112475 
200 1 0.0 -2.440990 11.280149 30.215127 
201 1 0.0 -2.330974 10.707050 31.496111 
202 1 0.0 -2.399412 8.467835 30.637334 
203 1 0.0 -2.312495 9.343080 31.714090 
204 1 0.0 -2.233539 11.387505 32.818511 
205 4 0.0 -2.186351 10.363694 33.800738 
206 3 0.0 -2.197730 12.585305 33.024431 
207 2 0.0 -2.639128 10.797472 28.065926 
208 2 0.0 -2.441803 12.348271 30.107455 
209 2 0.0 -2.407581 7.400663 30.805103 
210 3 0.0 -2.190954 8.044385 33.825745 
211 1 0.0 -2.221162 9.098922 33.202694 
212 1 0.0 1.973036 10.299105 43.773036 
213 3 0.0 1.798644 11.362915 42.926523 
214 2 0.0 -0.222855 9.458472 42.992901 
215 1 0.0 -0.328726 12.182124 40.107257 
216 1 0.0 -1.264319 11.163659 40.181611 
217 1 0.0 -1.215558 10.190124 41.186163 
218 1 0.0 -0.225013 10.206303 42.182915 
219 1 0.0 0.710218 11.223271 42.091708 
220 1 0.0 0.656342 12.206288 41.090611 
221 2 0.0 1.622654 9.554456 46.986398 
222 2 0.0 3.389825 7.240364 43.654691 
223 2 0.0 2.652300 9.062098 42.145598 
224 2 0.0 -3.931895 12.176157 37.670819 
225 1 0.0 -3.182696 11.570278 37.175487 
226 1 0.0 -3.178747 11.345619 35.773719 
227 1 0.0 -2.175739 10.570774 35.219204 
228 3 0.0 -2.383731 11.168568 39.368144 
229 1 0.0 -1.183180 10.000109 36.012543 
230 2 0.0 -0.446951 9.371668 35.518164 
231 1 0.0 -1.184841 10.219343 37.427116 
232 2 0.0 -0.425114 9.785279 38.080901 
233 1 0.0 -2.202713 10.991946 37.985442 
234 2 0.0 -2.003382 9.457952 41.205555 
235 2 0.0 -0.373528 12.973515 39.348762 
236 1 0.0 1.587086 10.417300 45.127326 
237 1 0.0 1.754509 9.315358 45.914579 
238 2 0.0 1.400214 11.349614 45.670625 
239 1 0.0 2.538808 8.215849 45.557890 
240 2 0.0 1.258075 7.107348 21.232156 
241 1 0.0 2.009989 18.239998 4.883560 
242 1 0.0 2.615116 19.302638 4.192026 
243 1 0.0 3.134522 19.119791 2.879349 
244 1 0.0 3.121958 17.838882 2.342486 
245 1 0.0 1.868951 16.991311 4.260761 
246 1 0.0 2.458419 16.795703 2.988819 
247 1 0.0 3.785427 17.351868 1.077579 
248 4 0.0 3.293400 15.911946 0.862359 
249 1 0.0 0.654546 13.058065 21.005406 
250 2 0.0 2.746456 20.244346 4.731864 
251 2 0.0 3.573512 19.937733 2.315653 
252 2 0.0 1.359569 16.189146 4.791898 
253 3 0.0 1.775886 14.615327 2.268010 
254 1 0.0 2.444949 15.606895 2.069729 
255 3 0.0 4.482452 17.988728 0.313186 
256 1 0.0 1.555497 18.436717 6.284470 
257 1 0.0 1.160077 19.703807 6.724234 
258 1 0.0 0.691846 19.926006 8.052100 
259 1 0.0 0.646291 18.840888 8.907676 
260 1 0.0 1.524369 17.349352 7.181942 
261 1 0.0 1.062271 17.594063 8.480771 
262 1 0.0 0.161439 18.739444 10.320945 
263 4 0.0 0.358343 17.410912 10.688847 
264 3 0.0 -0.343234 19.593786 11.045747 
265 2 0.0 1.183662 20.524761 6.000671 
266 2 0.0 0.347660 20.884467 8.410686 
267 2 0.0 1.846811 16.358024 6.900464 
268 3 0.0 1.128720 15.460753 9.622982 
269 1 0.0 0.887722 16.650970 9.611478 
270 1 0.0 0.741709 14.272836 21.686245 
271 2 0.0 1.412434 20.969625 41.156789 
272 2 0.0 0.073716 11.632072 17.729617 
273 1 0.0 -0.255881 15.443367 17.427601 
274 1 0.0 -0.792898 14.622421 16.416661 
275 1 0.0 -0.662780 13.254614 16.492967 
276 1 0.0 -0.021197 12.699121 17.624223 
277 1 0.0 0.506518 13.512193 18.646142 
278 1 0.0 0.395586 14.888092 18.551941 
279 1 0.0 2.864814 16.068049 44.143199 
280 2 0.0 0.012142 11.026485 21.047165 
281 3 0.0 1.195813 12.893982 19.706483 
282 2 0.0 -2.909394 16.410229 13.717078 
283 1 0.0 -1.876299 16.378394 13.417870 
284 1 0.0 -1.429246 16.953536 12.219793 
285 2 0.0 -1.094967 11.289126 23.378162 
286 1 0.0 -0.085194 16.873033 11.927207 
287 3 0.0 -1.589155 15.164197 15.397260 
288 1 0.0 0.812769 16.242525 12.784377 
289 2 0.0 1.846794 16.194213 12.476051 
290 1 0.0 0.367087 15.653513 13.994368 
291 2 0.0 1.053834 15.129721 14.663946 
292 1 0.0 -0.985272 15.731967 14.286738 
293 2 0.0 -1.089915 12.626238 15.695524 
294 2 0.0 -0.367012 16.512377 17.349210 
295 1 0.0 0.116926 14.409752 22.946855 
296 1 0.0 -0.538061 13.319287 23.500417 
297 2 0.0 0.110426 15.355485 23.490561 
298 1 0.0 -0.559356 12.091830 22.878216 
299 2 0.0 0.802743 15.535152 19.339457 
300 1 0.0 0.048310 11.958704 21.603101 
301 2 0.0 -2.098129 17.465697 11.521376 
302 1 0.0 -2.680272 16.210255 28.130679 
303 1 0.0 -3.669675 16.529816 27.173099 
304 1 0.0 -3.766043 15.866818 25.925505 
305 1 0.0 -2.827750 14.909289 25.693590 
306 1 0.0 -1.761271 15.199067 27.909758 
307 1 0.0 -1.850811 14.580719 26.654837 
308 1 0.0 -2.529004 14.279853 24.379761 
309 4 0.0 -1.357790 13.549062 24.638737 
310 1 0.0 2.495423 17.108997 43.262372 
311 2 0.0 -4.347553 17.332474 27.408302 
312 2 0.0 -4.482452 16.108017 25.126757 
313 2 0.0 -0.949875 15.001712 28.622163 
314 3 0.0 0.163606 13.277628 26.461566 
315 1 0.0 -0.874945 13.711173 25.994447 
316 3 0.0 -3.085573 14.416336 23.265515 
317 2 0.0 -3.937519 19.748502 35.099700 
318 1 0.0 -2.542852 17.042349 29.330186 
319 1 0.0 -2.557714 18.414069 29.112475 
320 1 0.0 -2.440990 19.280149 30.215127 
321 1 0.0 -2.330974 18.707050 31.496111 
322 1 0.0 -2.399412 16.467835 30.637334 
323 1 0.0 -2.312495 17.343080 31.714090 
324 1 0.0 -2.233539 19.387505 32.818511 
325 4 0.0 -2.186351 18.363694 33.800738 
326 3 0.0 -2.197730 20.585305 33.024431 
327 2 0.0 -2.639128 18.797472 28.065926 
328 2 0.0 -2.441803 20.348271 30.107455 
329 2 0.0 -2.407581 15.400663 30.805103 
330 3 0.0 -2.190954 16.044385 33.825745 
331 1 0.0 -2.221162 17.098922 33.202694 
332 1 0.0 1.973036 18.299105 43.773036 
333 3 0.0 1.798644 19.362915 42.926523 
334 2 0.0 -0.222855 17.458472 42.992901 
335 1 0.0 -0.328726 20.182124 40.107257 
336 1 0.0 -1.264319 19.163659 40.181611 
337 1 0.0 -1.215558 18.190124 41.186163 
338 1 0.0 -0.225013 18.206303 42.182915 
339 1 0.0 0.710218 19.223271 42.091708 
340 1 0.0 0.656342 20.206288 41.090611 
341 2 0.0 1.622654 17.554456 46.986398 
342 2 0.0 3.389825 15.240364 43.654691 
343 2 0.0 2.652300 17.062098 42.145598 
344 2 0.0 -3.931895 20.176157 37.670819 
345 1 0.0 -3.182696 19.570278 37.175487 
346 1 0.0 -3.178747 19.345619 35.773719 
347 1 0.0 -2.175739 18.570774 35.219204 
348 3 0.0 -2.383731 19.168568 39.368144 
349 1 0.0 -1.183180 18.000109 36.012543 
350 2 0.0 -0.446951 17.371668 35.518164 
351 1 0.0 -1.184841 18.219343 37.427116 
352 2 0.0 -0.425114 17.785279 38.080901 
353 1 0.0 -2.202713 18.991946 37.985442 
354 2 0.0 -2.003382 17.457952 41.205555 
355 2 0.0 -0.373528 20.973515 39.348762 
356 1 0.0 1.587086 18.417300 45.127326 
357 1 0.0 1.754509 17.315358 45.914579 
358 2 0.0 1.400214 19.349614 45.670625 
359 1 0.0 2.538808 16.215849 45.557890 
360 2 0.0 1.258075 15.107348 21.232156 
361 1 0.0 2.009989 26.239998 4.883560 
362 1 0.0 2.615116 27.302638 4.192026 
363 1 0.0 3.134522 27.119791 2.879349 
364 1 0.0 3.121958 25.838882 2.342486 
365 1 0.0 1.868951 24.991311 4.260761 
366 1 0.0 2.458419 24.795703 2.988819 
367 1 0.0 3.785427 25.351868 1.077579 
368 4 0.0 3.293400 23.911946 0.862359 
369 1 0.0 0.654546 21.058065 21.005406 
370 2 0.0 2.746456 28.244346 4.731864 
371 2 0.0 3.573512 27.937733 2.315653 
372 2 0.0 1.359569 24.189146 4.791898 
373 3 0.0 1.775886 22.615327 2.268010 
374 1 0.0 2.444949 23.606895 2.069729 
375 3 0.0 4.482452 25.988728 0.313186 
376 1 0.0 1.555497 26.436717 6.284470 
377 1 0.0 1.160077 27.703807 6.724234 
378 1 0.0 0.691846 27.926006 8.052100 
379 1 0.0 0.646291 26.840888 8.907676 
380 1 0.0 1.524369 25.349352 7.181942 
381 1 0.0 1.062271 25.594063 8.480771 
382 1 0.0 0.161439 26.739444 10.320945 
383 4 0.0 0.358343 25.410912 10.688847 
384 3 0.0 -0.343234 27.593786 11.045747 
385 2 0.0 1.183662 28.524761 6.000671 
386 2 0.0 0.347660 28.884467 8.410686 
387 2 0.0 1.846811 24.358024 6.900464 
388 3 0.0 1.128720 23.460753 9.622982 
389 1 0.0 0.887722 24.650970 9.611478 
390 1 0.0 0.741709 22.272836 21.686245 
391 2 0.0 1.412434 28.969625 41.156789 
392 2 0.0 0.073716 19.632072 17.729617 
393 1 0.0 -0.255881 23.443367 17.427601 
394 1 0.0 -0.792898 22.622421 16.416661 
395 1 0.0 -0.662780 21.254614 16.492967 
396 1 0.0 -0.021197 20.699121 17.624223 
397 1 0.0 0.506518 21.512193 18.646142 
398 1 0.0 0.395586 22.888092 18.551941 
399 1 0.0 2.864814 24.068049 44.143199 
400 2 0.0 0.012142 19.026485 21.047165 
401 3 0.0 1.195813 20.893982 19.706483 
402 2 0.0 -2.909394 24.410229 13.717078 
403 1 0.0 -1.876299 24.378394 13.417870 
404 1 0.0 -1.429246 24.953536 12.219793 
405 2 0.0 -1.094967 19.289126 23.378162 
406 1 0.0 -0.085194 24.873033 11.927207 
407 3 0.0 -1.589155 23.164197 15.397260 
408 1 0.0 0.812769 24.242525 12.784377 
409 2 0.0 1.846794 24.194213 12.476051 
410 1 0.0 0.367087 23.653513 13.994368 
411 2 0.0 1.053834 23.129721 14.663946 
412 1 0.0 -0.985272 23.731967 14.286738 
413 2 0.0 -1.089915 20.626238 15.695524 
414 2 0.0 -0.367012 24.512377 17.349210 
415 1 0.0 0.116926 22.409752 22.946855 
416 1 0.0 -0.538061 21.319287 23.500417 
417 2 0.0 0.110426 23.355485 23.490561 
418 1 0.0 -0.559356 20.091830 22.878216 
419 2 0.0 0.802743 23.535152 19.339457 
420 1 0.0 0.048310 19.958704 21.603101 
421 2 0.0 -2.098129 25.465697 11.521376 
422 1 0.0 -2.680272 24.210255 28.130679 
423 1 0.0 -3.669675 24.529816 27.173099 
424 1 0.0 -3.766043 23.866818 25.925505 
425 1 0.0 -2.827750 22.909289 25.693590 
426 1 0.0 -1.761271 23.199067 27.909758 
427 1 0.0 -1.850811 22.580719 26.654837 
428 1 0.0 -2.529004 22.279853 24.379761 
429 4 0.0 -1.357790 21.549062 24.638737 
430 1 0.0 2.495423 25.108997 43.262372 
431 2 0.0 -4.347553 25.332474 27.408302 
432 2 0.0 -4.482452 24.108017 25.126757 
433 2 0.0 -0.949875 23.001712 28.622163 
434 3 0.0 0.163606 21.277628 26.461566 
435 1 0.0 -0.874945 21.711173 25.994447 
436 3 0.0 -3.085573 22.416336 23.265515 
437 2 0.0 -3.937519 27.748502 35.099700 
438 1 0.0 -2.542852 25.042349 29.330186 
439 1 0.0 -2.557714 26.414069 29.112475 
440 1 0.0 -2.440990 27.280149 30.215127 
441 1 0.0 -2.330974 26.707050 31.496111 
442 1 0.0 -2.399412 24.467835 30.637334 
443 1 0.0 -2.312495 25.343080 31.714090 
444 1 0.0 -2.233539 27.387505 32.818511 
445 4 0.0 -2.186351 26.363694 33.800738 
446 3 0.0 -2.197730 28.585305 33.024431 
447 2 0.0 -2.639128 26.797472 28.065926 
448 2 0.0 -2.441803 28.348271 30.107455 
449 2 0.0 -2.407581 23.400663 30.805103 
450 3 0.0 -2.190954 24.044385 33.825745 
451 1 0.0 -2.221162 25.098922 33.202694 
452 1 0.0 1.973036 26.299105 43.773036 
453 3 0.0 1.798644 27.362915 42.926523 
454 2 0.0 -0.222855 25.458472 42.992901 
455 1 0.0 -0.328726 28.182124 40.107257 
456 1 0.0 -1.264319 27.163659 40.181611 
457 1 0.0 -1.215558 26.190124 41.186163 
458 1 0.0 -0.225013 26.206303 42.182915 
459 1 0.0 0.710218 27.223271 42.091708 
460 1 0.0 0.656342 28.206288 41.090611 
461 2 0.0 1.622654 25.554456 46.986398 
462 2 0.0 3.389825 23.240364 43.654691 
463 2 0.0 2.652300 25.062098 42.145598 
464 2 0.0 -3.931895 28.176157 37.670819 
465 1 0.0 -3.182696 27.570278 37.175487 
466 1 0.0 -3.178747 27.345619 35.773719 
467 1 0.0 -2.175739 26.570774 35.219204 
468 3 0.0 -2.383731 27.168568 39.368144 
469 1 0.0 -1.183180 26.000109 36.012543 
470 2 0.0 -0.446951 25.371668 35.518164 
471 1 0.0 -1.184841 26.219343 37.427116 
472 2 0.0 -0.425114 25.785279 38.080901 
473 1 0.0 -2.202713 26.991946 37.985442 
474 2 0.0 -2.003382 25.457952 41.205555 
475 2 0.0 -0.373528 28.973515 39.348762 
476 1 0.0 1.587086 26.417300 45.127326 
477 1 0.0 1.754509 25.315358 45.914579 
478 2 0.0 1.400214 27.349614 45.670625 
479 1 0.0 2.538808 24.215849 45.557890 
480 2 0.0 1.258075 23.107348 21.232156 
481 1 0.0 2.009989 34.239998 4.883560 
482 1 0.0 2.615116 35.302638 4.192026 
483 1 0.0 3.134522 35.119791 2.879349 
484 1 0.0 3.121958 33.838882 2.342486 
485 1 0.0 1.868951 32.991311 4.260761 
486 1 0.0 2.458419 32.795703 2.988819 
487 1 0.0 3.785427 33.351868 1.077579 
488 4 0.0 3.293400 31.911946 0.862359 
489 1 0.0 0.654546 29.058065 21.005406 
490 2 0.0 2.746456 36.244346 4.731864 
491 2 0.0 3.573512 35.937733 2.315653 
492 2 0.0 1.359569 32.189146 4.791898 
493 3 0.0 1.775886 30.615327 2.268010 
494 1 0.0 2.444949 31.606895 2.069729 
495 3 0.0 4.482452 33.988728 0.313186 
496 1 0.0 1.555497 34.436717 6.284470 
497 1 0.0 1.160077 35.703807 6.724234 
498 1 0.0 0.691846 35.926006 8.052100 
499 1 0.0 0.646291 34.840888 8.907676 
500 1 0.0 1.524369 33.349352 7.181942 
501 1 0.0 1.062271 33.594063 8.480771 
502 1 0.0 0.161439 34.739444 10.320945 
503 4 0.0 0.358343 33.410912 10.688847 
504 3 0.0 -0.343234 35.593786 11.045747 
505 2 0.0 1.183662 36.524761 6.000671 
506 2 0.0 0.347660 36.884467 8.410686 
507 2 0.0 1.846811 32.358024 6.900464 
508 3 0.0 1.128720 31.460753 9.622982 
509 1 0.0 0.887722 32.650970 9.611478 
510 1 0.0 0.741709 30.272836 21.686245 
511 2 0.0 1.412434 36.969625 41.156789 
512 2 0.0 0.073716 27.632072 17.729617 
513 1 0.0 -0.255881 31.443367 17.427601 
514 1 0.0 -0.792898 30.622421 16.416661 
515 1 0.0 -0.662780 29.254614 16.492967 
516 1 0.0 -0.021197 28.699121 17.624223 
517 1 0.0 0.506518 29.512193 18.646142 
518 1 0.0 0.395586 30.888092 18.551941 
519 1 0.0 2.864814 32.068049 44.143199 
520 2 0.0 0.012142 27.026485 21.047165 
521 3 0.0 1.195813 28.893982 19.706483 
522 2 0.0 -2.909394 32.410229 13.717078 
523 1 0.0 -1.876299 32.378394 13.417870 
524 1 0.0 -1.429246 32.953536 12.219793 
525 2 0.0 -1.094967 27.289126 23.378162 
526 1 0.0 -0.085194 32.873033 11.927207 
527 3 0.0 -1.589155 31.164197 15.397260 
528 1 0.0 0.812769 32.242525 12.784377 
529 2 0.0 1.846794 32.194213 12.476051 
530 1 0.0 0.367087 31.653513 13.994368 
531 2 0.0 1.053834 31.129721 14.663946 
532 1 0.0 -0.985272 31.731967 14.286738 
533 2 0.0 -1.089915 28.626238 15.695524 
534 2 0.0 -0.367012 32.512377 17.349210 
535 1 0.0 0.116926 30.409752 22.946855 
536 1 0.0 -0.538061 29.319287 23.500417 
537 2 0.0 0.110426 31.355485 23.490561 
538 1 0.0 -0.559356 28.091830 22.878216 
539 2 0.0 0.802743 31.535152 19.339457 
540 1 0.0 0.048310 27.958704 21.603101 
541 2 0.0 -2.098129 33.465697 11.521376 
542 1 0.0 -2.680272 32.210255 28.130679 
543 1 0.0 -3.669675 32.529816 27.173099 
544 1 0.0 -3.766043 31.866818 25.925505 
545 1 0.0 -2.827750 30.909289 25.693590 
546 1 0.0 -1.761271 31.199067 27.909758 
547 1 0.0 -1.850811 30.580719 26.654837 
548 1 0.0 -2.529004 30.279853 24.379761 
549 4 0.0 -1.357790 29.549062 24.638737 
550 1 0.0 2.495423 33.108997 43.262372 
551 2 0.0 -4.347553 33.332474 27.408302 
552 2 0.0 -4.482452 32.108017 25.126757 
553 2 0.0 -0.949875 31.001712 28.622163 
554 3 0.0 0.163606 29.277628 26.461566 
555 1 0.0 -0.874945 29.711173 25.994447 
556 3 0.0 -3.085573 30.416336 23.265515 
557 2 0.0 -3.937519 35.748502 35.099700 
558 1 0.0 -2.542852 33.042349 29.330186 
559 1 0.0 -2.557714 34.414069 29.112475 
560 1 0.0 -2.440990 35.280149 30.215127 
561 1 0.0 -2.330974 34.707050 31.496111 
562 1 0.0 -2.399412 32.467835 30.637334 
563 1 0.0 -2.312495 33.343080 31.714090 
564 1 0.0 -2.233539 35.387505 32.818511 
565 4 0.0 -2.186351 34.363694 33.800738 
566 3 0.0 -2.197730 36.585305 33.024431 
567 2 0.0 -2.639128 34.797472 28.065926 
568 2 0.0 -2.441803 36.348271 30.107455 
569 2 0.0 -2.407581 31.400663 30.805103 
570 3 0.0 -2.190954 32.044385 33.825745 
571 1 0.0 -2.221162 33.098922 33.202694 
572 1 0.0 1.973036 34.299105 43.773036 
573 3 0.0 1.798644 35.362915 42.926523 
574 2 0.0 -0.222855 33.458472 42.992901 
575 1 0.0 -0.328726 36.182124 40.107257 
576 1 0.0 -1.264319 35.163659 40.181611 
577 1 0.0 -1.215558 34.190124 41.186163 
578 1 0.0 -0.225013 34.206303 42.182915 
579 1 0.0 0.710218 35.223271 42.091708 
580 1 0.0 0.656342 36.206288 41.090611 
581 2 0.0 1.622654 33.554456 46.986398 
582 2 0.0 3.389825 31.240364 43.654691 
583 2 0.0 2.652300 33.062098 42.145598 
584 2 0.0 -3.931895 36.176157 37.670819 
585 1 0.0 -3.182696 35.570278 37.175487 
586 1 0.0 -3.178747 35.345619 35.773719 
587 1 0.0 -2.175739 34.570774 35.219204 
588 3 0.0 -2.383731 35.168568 39.368144 
589 1 0.0 -1.183180 34.000109 36.012543 
590 2 0.0 -0.446951 33.371668 35.518164 
591 1 0.0 -1.184841 34.219343 37.427116 
592 2 0.0 -0.425114 33.785279 38.080901 
593 1 0.0 -2.202713 34.991946 37.985442 
594 2 0.0 -2.003382 33.457952 41.205555 
595 2 0.0 -0.373528 36.973515 39.348762 
596 1 0.0 1.587086 34.417300 45.127326 
597 1 0.0 1.754509 33.315358 45.914579 
598 2 0.0 1.400214 35.349614 45.670625 
599 1 0.0 2.538808 32.215849 45.557890 
600 2 0.0 1.258075 31.107348 21.232156 
601 1 0.0 2.009989 42.239998 4.883560 
602 1 0.0 2.615116 43.302638 4.192026 
603 1 0.0 3.134522 43.119791 2.879349 
604 1 0.0 3.121958 41.838882 2.342486 
605 1 0.0 1.868951 40.991311 4.260761 
606 1 0.0 2.458419 40.795703 2.988819 
607 1 0.0 3.785427 41.351868 1.077579 
608 4 0.0 3.293400 39.911946 0.862359 
609 1 0.0 0.654546 37.058065 21.005406 
610 2 0.0 2.746456 44.244346 4.731864 
611 2 0.0 3.573512 43.937733 2.315653 
612 2 0.0 1.359569 40.189146 4.791898 
613 3 0.0 1.775886 38.615327 2.268010 
614 1 0.0 2.444949 39.606895 2.069729 
615 3 0.0 4.482452 41.988728 0.313186 
616 1 0.0 1.555497 42.436717 6.284470 
617 1 0.0 1.160077 43.703807 6.724234 
618 1 0.0 0.691846 43.926006 8.052100 
619 1 0.0 0.646291 42.840888 8.907676 
620 1 0.0 1.524369 41.349352 7.181942 
621 1 0.0 1.062271 41.594063 8.480771 
622 1 0.0 0.161439 42.739444 10.320945 
623 4 0.0 0.358343 41.410912 10.688847 
624 3 0.0 -0.343234 43.593786 11.045747 
625 2 0.0 1.183662 44.524761 6.000671 
626 2 0.0 0.347660 44.884467 8.410686 
627 2 0.0 1.846811 40.358024 6.900464 
628 3 0.0 1.128720 39.460753 9.622982 
629 1 0.0 0.887722 40.650970 9.611478 
630 1 0.0 0.741709 38.272836 21.686245 
631 2 0.0 1.412434 44.969625 41.156789 
632 2 0.0 0.073716 35.632072 17.729617 
633 1 0.0 -0.255881 39.443367 17.427601 
634 1 0.0 -0.792898 38.622421 16.416661 
635 1 0.0 -0.662780 37.254614 16.492967 
636 1 0.0 -0.021197 36.699121 17.624223 
637 1 0.0 0.506518 37.512193 18.646142 
638 1 0.0 0.395586 38.888092 18.551941 
639 1 0.0 2.864814 40.068049 44.143199 
640 2 0.0 0.012142 35.026485 21.047165 
641 3 0.0 1.195813 36.893982 19.706483 
642 2 0.0 -2.909394 40.410229 13.717078 
643 1 0.0 -1.876299 40.378394 13.417870 
644 1 0.0 -1.429246 40.953536 12.219793 
645 2 0.0 -1.094967 35.289126 23.378162 
646 1 0.0 -0.085194 40.873033 11.927207 
647 3 0.0 -1.589155 39.164197 15.397260 
648 1 0.0 0.812769 40.242525 12.784377 
649 2 0.0 1.846794 40.194213 12.476051 
650 1 0.0 0.367087 39.653513 13.994368 
651 2 0.0 1.053834 39.129721 14.663946 
652 1 0.0 -0.985272 39.731967 14.286738 
653 2 0.0 -1.089915 36.626238 15.695524 
654 2 0.0 -0.367012 40.512377 17.349210 
655 1 0.0 0.116926 38.409752 22.946855 
656 1 0.0 -0.538061 37.319287 23.500417 
657 2 0.0 0.110426 39.355485 23.490561 
658 1 0.0 -0.559356 36.091830 22.878216 
659 2 0.0 0.802743 39.535152 19.339457 
660 1 0.0 0.048310 35.958704 21.603101 
661 2 0.0 -2.098129 41.465697 11.521376 
662 1 0.0 -2.680272 40.210255 28.130679 
663 1 0.0 -3.669675 40.529816 27.173099 
664 1 0.0 -3.766043 39.866818 25.925505 
665 1 0.0 -2.827750 38.909289 25.693590 
666 1 0.0 -1.761271 39.199067 27.909758 
667 1 0.0 -1.850811 38.580719 26.654837 
668 1 0.0 -2.529004 38.279853 24.379761 
669 4 0.0 -1.357790 37.549062 24.638737 
670 1 0.0 2.495423 41.108997 43.262372 
671 2 0.0 -4.347553 41.332474 27.408302 
672 2 0.0 -4.482452 40.108017 25.126757 
673 2 0.0 -0.949875 39.001712 28.622163 
674 3 0.0 0.163606 37.277628 26.461566 
675 1 0.0 -0.874945 37.711173 25.994447 
676 3 0.0 -3.085573 38.416336 23.265515 
677 2 0.0 -3.937519 43.748502 35.099700 
678 1 0.0 -2.542852 41.042349 29.330186 
679 1 0.0 -2.557714 42.414069 29.112475 
680 1 0.0 -2.440990 43.280149 30.215127 
681 1 0.0 -2.330974 42.707050 31.496111 
682 1 0.0 -2.399412 40.467835 30.637334 
683 1 0.0 -2.312495 41.343080 31.714090 
684 1 0.0 -2.233539 43.387505 32.818511 
685 4 0.0 -2.186351 42.363694 33.800738 
686 3 0.0 -2.197730 44.585305 33.024431 
687 2 0.0 -2.639128 42.797472 28.065926 
688 2 0.0 -2.441803 44.348271 30.107455 
689 2 0.0 -2.407581 39.400663 30.805103 
690 3 0.0 -2.190954 40.044385 33.825745 
691 1 0.0 -2.221162 41.098922 33.202694 
692 1 0.0 1.973036 42.299105 43.773036 
693 3 0.0 1.798644 43.362915 42.926523 
694 2 0.0 -0.222855 41.458472 42.992901 
695 1 0.0 -0.328726 44.182124 40.107257 
696 1 0.0 -1.264319 43.163659 40.181611 
697 1 0.0 -1.215558 42.190124 41.186163 
698 1 0.0 -0.225013 42.206303 42.182915 
699 1 0.0 0.710218 43.223271 42.091708 
700 1 0.0 0.656342 44.206288 41.090611 
701 2 0.0 1.622654 41.554456 46.986398 
702 2 0.0 3.389825 39.240364 43.654691 
703 2 0.0 2.652300 41.062098 42.145598 
704 2 0.0 -3.931895 44.176157 37.670819 
705 1 0.0 -3.182696 43.570278 37.175487 
706 1 0.0 -3.178747 43.345619 35.773719 
707 1 0.0 -2.175739 42.570774 35.219204 
708 3 0.0 -2.383731 43.168568 39.368144 
709 1 0.0 -1.183180 42.000109 36.012543 
710 2 0.0 -0.446951 41.371668 35.518164 
711 1 0.0 -1.184841 42.219343 37.427116 
712 2 0.0 -0.425114 41.785279 38.080901 
713 1 0.0 -2.202713 42.991946 37.985442 
714 2 0.0 -2.003382 41.457952 41.205555 
715 2 0.0 -0.373528 44.973515 39.348762 
716 1 0.0 1.587086 42.417300 45.127326 
717 1 0.0 1.754509 41.315358 45.914579 
718 2 0.0 1.400214 43.349614 45.670625 
719 1 0.0 2.538808 40.215849 45.557890 
720 2 0.0 1.258075 39.107348 21.232156 
721 1 0.0 2.009989 50.239998 4.883560 
722 1 0.0 2.615116 51.302638 4.192026 
723 1 0.0 3.134522 51.119791 2.879349 
724 1 0.0 3.121958 49.838882 2.342486 
725 1 0.0 1.868951 48.991311 4.260761 
726 1 0.0 2.458419 48.795703 2.988819 
727 1 0.0 3.785427 49.351868 1.077579 
728 4 0.0 3.293400 47.911946 0.862359 
729 1 0.0 0.654546 45.058065 21.005406 
730 2 0.0 2.746456 52.244346 4.731864 
731 2 0.0 3.573512 51.937733 2.315653 
732 2 0.0 1.359569 48.189146 4.791898 
733 3 0.0 1.775886 46.615327 2.268010 
734 1 0.0 2.444949 47.606895 2.069729 
735 3 0.0 4.482452 49.988728 0.313186 
736 1 0.0 1.555497 50.436717 6.284470 
737 1 0.0 1.160077 51.703807 6.724234 
738 1 0.0 0.691846 51.926006 8.052100 
739 1 0.0 0.646291 50.840888 8.907676 
740 1 0.0 1.524369 49.349352 7.181942 
741 1 0.0 1.062271 49.594063 8.480771 
742 1 0.0 0.161439 50.739444 10.320945 
743 4 0.0 0.358343 49.410912 10.688847 