576
 Atoms. Timestep: 0
1 0.721978 0.0995506 10.8995
2 -0.169338 0.92544 235.991
2 0.00207717 -0.602944 11.869
1 1.8186 0.942484 11.6119
3 2.65857 0.324425 11.8259
3 2.18123 1.67126 10.9252
1 1.39615 1.6329 12.9431
2 2.23109 2.73051 13.1902
2 0.0978581 2.13411 12.8232
1 1.49869 0.61436 14.1353
3 1.42784 -0.400353 13.8004
3 2.4861 0.684715 14.5321
1 0.538873 0.833222 15.3346
2 0.665594 2.1587 15.755
2 -0.796517 0.638919 14.9299
1 0.887272 -0.12164 16.5281
3 1.32813 -1.01798 16.1199
3 1.64528 0.364729 17.1049
1 -0.199662 -0.52316 17.5733
2 -0.914594 0.609746 17.9874
2 -1.10272 -1.41613 17
1 0.473872 -1.18666 18.8184
3 0.963333 -2.09532 18.4792
3 1.23218 -0.520697 19.1396
1 -0.358231 -1.44894 20.1011
2 -1.39442 -0.503231 20.1911
2 -0.949365 -2.70283 19.9781
1 0.473336 -1.39039 21.4333
2 1.79377 -2.06217 21.2808
3 0.835846 -0.396207 21.5674
1 -0.285918 -1.85964 22.7364
2 -1.57221 -1.33591 22.7694
2 -0.467676 3.08088 22.696
1 0.423393 -1.43366 24.0464
3 0.807602 -2.29409 24.5408
3 1.26569 -0.853052 23.7664
1 -0.353671 -0.552706 25.0876
2 -0.898927 0.542783 24.4197
2 -1.40744 -1.28628 25.6003
1 0.465618 -0.0152161 26.3007
3 0.558687 -0.790088 27.0272
3 1.43899 0.230858 25.9724
1 -0.047911 1.23961 27.0273
2 0.36072 2.3762 26.3226
2 -1.43543 1.22847 27.0338
1 0.494953 1.21309 28.5277
3 0.0807503 0.311941 28.9165
2 1.95611 0.946778 28.6119
1 0.096027 2.38335 29.4745
2 0.737747 -2.76746 29.0322
2 -1.27423 2.59758 29.4148
1 0.483825 2.13621 30.9642
3 1.5228 2.327 31.0585
3 0.0251692 2.8727 31.5615
1 0.163367 0.806788 31.7018
2 -1.138 0.417586 31.4152
2 1.04337 -0.174193 31.2241
1 0.287486 0.944296 33.2593
3 1.30716 1.1855 33.4508
3 -0.270082 1.80541 33.5802
1 -0.17419 -0.278693 34.0728
2 -1.58494 -0.27779 34.1839
2 0.213489 -1.47662 33.4266
1 0.512387 -0.178679 35.4845
2 1.95686 -0.0486187 35.3123
3 0.157474 0.734189 35.9327
1 0.212379 -1.40607 36.47
2 -1.14833 -1.81823 36.391
2 1.02574 -2.50203 36.1598
1 0.577662 -0.981461 37.8805
3 1.59413 -1.29363 38.0625
3 0.617487 0.0854284 37.8844
1 -0.273753 -1.6807 39.0176
2 -1.61692 -1.33566 38.9374
2 -0.191645 -3.07065 38.8459
1 0.257843 -1.31384 40.4287
3 0.361484 -2.25895 40.9024
3 1.23191 -0.905041 40.3562
1 -0.590235 -0.468008 41.3892
2 -0.963137 0.745584 40.7833
2 -1.75312 -1.17833 41.6339
1 0.214603 -0.236425 42.7621
3 0.328198 -1.20441 43.1927
2 1.59602 0.225515 42.5139
1 -0.487544 0.70094 43.7968
2 -0.170239 2.04214 43.4811
2 -1.88668 0.551401 43.7074
1 -0.0255914 0.418367 45.2496
3 0.181332 -0.621919 45.3554
3 0.906364 0.929653 45.4024
1 -0.96818 0.821529 46.422
2 -1.46637 2.11558 46.1992
2 -2.04873 -0.0606811 46.4902
1 -0.158527 0.785688 47.7658
3 0.644884 0.0880641 47.6721
3 0.284423 1.74943 47.8406
1 -0.861832 0.444441 49.0913
2 -2.03084 1.19068 49.1833
2 -1.20182 -0.925747 49.0815
1 0.0662589 0.79299 50.3295
2 1.47368 0.319539 50.0702
3 0.0745364 1.88039 50.3996
1 -0.417613 0.268764 51.7132
2 -1.78492 0.542325 51.9188
2 -0.229979 -1.11018 51.7948
1 0.464585 0.970495 52.7907
3 1.47356 0.942334 52.4493
3 0.203719 1.9985 52.8143
1 0.406582 0.507544 54.2633
2 -0.919638 0.494229 54.6549
2 0.915394 -0.801704 54.3811
1 1.22417 1.50316 55.1891
3 2.24001 1.36056 54.9337
3 1.01894 2.52924 54.9599
1 1.13894 1.36665 56.7067
2 2.08853 2.23856 57.2718
2 -0.11933 1.79577 57.1424
1 1.40623 -0.133667 57.1287
3 0.797023 -0.8114 56.5134
2 2.78744 -0.475534 56.887
1 1.04209 -0.352915 58.6659
2 1.88918 0.375652 59.5232
2 -0.283071 0.0171653 58.9279
1 1.19962 -1.8351 58.9775
3 0.722806 -2.3306 58.1577
3 2.25624 -2.04963 58.9453
1 0.594062 -2.39137 60.3221
2 -0.744004 -2.74182 60.1128
2 1.25269 2.76743 60.6853
1 0.676826 -1.35103 61.4893
3 1.70403 -1.19202 61.7894
3 0.299588 -0.413019 61.108
1 -0.064897 -1.67353 62.7894
2 -1.4453 -1.61503 62.5649
2 0.244343 -2.97545 63.207
1 0.403861 -0.621734 63.8815
2 1.75085 -0.907557 64.2973
3 0.474161 0.295993 63.3422
1 -0.509736 -0.432162 65.1819
2 -1.61071 0.38371 64.8942
2 -0.978433 -1.67991 65.6495
1 0.317925 0.239385 66.266
3 1.09231 -0.426036 66.5876
3 0.758522 1.12378 65.8335
1 -0.496851 0.650725 67.5499
2 -0.918845 1.98558 67.418
2 -1.61863 -0.149065 67.6715
1 0.373415 0.46487 68.817
3 0.355695 -0.553599 69.1586
3 1.38364 0.6527 68.5293
1 -0.000839792 1.34501 70.0559
2 0.456272 2.64484 69.8607
2 -1.38021 1.3858 70.2581
1 0.664199 0.705365 71.3064
3 0.0761366 -0.150005 71.5626
3 1.63338 0.380303 71.0001
1 0.811616 1.58948 72.5755
2 1.80523 2.53386 72.3317
2 -0.385756 2.28609 72.7891
1 1.19462 0.766175 73.8564
3 1.60285 -0.170619 73.5583
3 1.99932 1.26471 74.3594
1 0.0899945 0.528872 74.9242
2 -0.323729 1.77351 75.4064
2 -1.01522 -0.0841466 74.3415
1 0.571894 -0.342848 76.1386
3 0.923766 -1.28915 75.7905
3 1.41987 0.205045 76.5005
1 -0.39929 -0.667684 77.2844
2 -1.17261 0.460484 77.551
2 -1.28073 -1.68451 76.8771
1 0.381511 -1.13281 78.599
2 1.31259 -2.22742 78.2703
3 0.996725 -0.312598 78.8975
1 -0.473477 -1.50911 79.8681
2 -1.74665 -0.920336 79.8206
2 -0.649036 -2.91001 79.9451
1 0.263544 -1.01511 81.1338
3 0.842635 -1.81465 81.5223
3 0.939259 -0.232927 80.871
1 -0.559637 -0.458451 82.3223
2 -1.28748 0.645647 81.8776
2 -1.46146 -1.44045 82.7521
1 0.389008 -0.0386138 83.5018
3 0.590505 -0.908341 84.0856
3 1.36584 0.237102 83.1439
1 -0.160074 1.10118 84.389
2 0.147632 2.3408 83.7999
2 -1.56498 1.0013 84.4701
1 0.468852 1.05615 85.8267
3 0.197129 0.120308 86.2715
2 1.94657 0.961873 85.7374
1 0.0196724 2.23848 86.7973
2 0.625835 -2.85985 86.419
2 -1.3612 2.41727 86.7588
1 0.442308 1.89507 88.235
3 1.4636 2.18077 88.2947
3 -0.086294 2.5321 88.9193
1 0.344889 0.414154 88.724
2 -0.899512 -0.121841 88.3515
2 1.33539 -0.346679 88.1051
1 0.56457 0.314168 90.281
3 1.50482 0.769566 90.5221
3 -0.154763 0.852499 90.8581
1 0.587734 -1.10328 90.8377
2 -0.588289 -1.77944 90.4813
2 1.67169 -1.80917 90.3159
1 0.735307 -0.893048 92.4217
2 1.94868 -0.128651 92.7124
3 -0.0970769 -0.298195 92.7238
1 0.691628 -2.18509 93.3126
2 -0.493719 -2.90525 93.0991
2 1.78721 -3.0447 93.0125
1 0.763237 -1.76568 94.7948
3 0.752657 -2.71448 95.2765
3 1.72649 -1.27147 94.9115
1 -0.328646 -0.93301 95.5345
2 -0.491784 0.25491 94.8509
2 -1.5597 -1.62243 95.4742
1 0.0488103 -0.604079 97.0446
3 0.114487 -1.5154 97.6035
3 1.04332 -0.210819 97.0267
1 -0.728895 0.377554 97.9171
2 -0.719567 1.64074 97.3147
2 -2.06303 -0.0286963 97.9951
1 -0.0957923 0.476239 99.404
3 -0.413625 -0.364527 99.9655
2 1.37021 0.40539 99.3616
1 -0.55151 1.76708 100.157
2 0.0622576 2.89094 99.5693
2 -1.95258 1.94384 100.072
1 -0.121716 1.70806 101.644
3 0.846646 1.25527 101.74
3 0.00562452 2.7208 101.93
1 -1.04991 0.991338 102.656
2 -2.07247 1.86603 103.077
2 -1.63995 -0.112281 102.037
1 -0.15434 0.493381 103.866
3 0.574467 -0.14677 103.451
3 0.461854 1.27189 104.255
1 -0.813929 -0.265329 105.016
2 -1.91114 0.483618 105.435
2 -1.28994 -1.5048 104.549
1 0.179443 -0.490698 106.242
2 1.52492 -0.735852 105.754
3 0.178195 0.479781 106.686
1 -0.218164 -1.55738 107.353
2 -1.57643 -1.42879 107.689
2 -0.0473998 -2.86692 106.867
1 0.649614 -1.41732 108.611
3 0.524568 -2.31643 109.155
3 1.68498 -1.39492 108.282
1 0.448739 -0.23114 109.619
2 0.895009 0.9049 108.962
2 -0.91859 -0.0560273 109.887
1 1.19757 -0.348026 110.984
3 1.41208 -1.38731 111.19
3 2.13398 0.152458 110.888
1 0.495786 0.284714 112.218
2 -0.203914 1.43969 111.816
2 -0.454113 -0.61989 112.687
1 1.47275 0.645573 113.379
3 2.12486 -0.192514 113.49
2 2.30119 1.80618 113.016
1 0.722494 0.830003 114.798
2 1.39965 1.76178 115.59
2 -0.584735 1.31912 114.608
1 0.65851 -0.510595 115.534
3 -0.10743 -1.09946 115.039
3 1.56246 -1.03466 115.348
1 0.476338 -0.532571 117.105
2 1.50313 0.213606 117.721
2 -0.72222 0.0972161 117.403
1 0.467556 -1.95396 117.751
3 0.0103895 -2.66315 117.078
3 1.48303 -2.29567 117.866
1 -0.140462 -2.10153 119.16
2 -1.5028 -1.7441 119.151
2 -0.117742 2.87071 119.461
1 0.620355 -1.25704 120.272
2 1.75106 -1.98442 120.83
3 1.04667 -0.421694 119.777
1 -0.274297 -0.639419 121.439
2 -1.02799 0.422644 120.945
2 -1.17673 -1.59263 121.927
1 0.621255 -0.1372 122.579
3 1.02453 -0.996297 123.066
3 1.47657 0.348466 122.163
1 0.0466266 0.905828 123.605
2 0.151353 2.18315 123.051
2 -1.3051 0.656124 123.828
1 0.815183 0.829492 124.954
3 0.759382 -0.205234 125.246
3 1.8613 1.04122 124.831
1 0.282021 1.75631 126.096
2 0.805643 3.05097 125.946
2 -1.11005 1.84739 126.035
1 0.686465 1.15642 127.479
3 0.694284 0.104564 127.338
3 1.67478 1.44013 127.764
1 -0.291268 1.29515 128.678
2 -0.692878 2.61957 128.808
2 -1.42605 0.528648 128.389
1 0.33283 0.810144 130.031
3 0.91484 -0.0553699 129.809
3 1.04077 1.52829 130.403
1 -0.648392 0.455828 131.175
2 -1.58763 1.46755 131.356
2 -1.33733 -0.725112 130.855
1 0.190232 0.290064 132.505
3 1.1296 -0.129404 132.218
3 0.376411 1.25341 132.946
1 -0.397175 -0.520845 133.646
2 -1.64791 0.0200221 133.988
2 -0.592372 -1.83539 133.225
1 0.629721 -0.461667 134.9
2 2.02384 -0.482394 134.473
3 0.479081 0.444707 135.441
1 0.324189 -1.61288 135.903
2 -1.06214 -1.71258 136.155
2 0.802618 -2.85918 135.457
1 1.10081 -1.16907 137.167
3 2.12546 -1.08369 136.901
3 0.781356 -0.190597 137.469
1 1.0978 -2.1524 138.363
2 -0.20181 -2.44539 138.713
2 1.70893 2.96989 137.982
1 1.82605 -1.48745 139.583
3 2.05643 -2.30419 140.215
3 2.75022 -1.0266 139.26
1 1.04302 -0.472712 140.459
2 0.202513 0.28604 139.638
2 0.225362 -1.16103 141.359
1 1.99133 0.466277 141.277
3 2.57734 -0.163326 141.903
2 2.98129 1.12333 140.383
1 1.3186 1.48324 142.297
2 2.13383 2.59589 142.479
2 0.121488 1.94531 141.767
1 1.05399 0.859853 143.69
3 0.536892 -0.0654846 143.557
3 1.99091 0.631357 144.142
1 0.220719 1.73066 144.665
2 0.611476 3.07302 144.561
2 -1.09349 1.67217 144.259
1 0.349871 1.23382 146.175
3 1.22926 0.649266 146.275
3 0.553808 2.07612 146.803
1 -0.689027 0.344597 146.842
2 -1.86579 1.08557 147.055
2 -1.00356 -0.733772 146.007
1 -0.0571502 -0.184969 148.236
2 1.17067 -0.941497 148.03
3 0.282636 0.704124 148.725
1 -1.00873 -0.960783 149.197
2 -2.34317 -0.552898 149.017
2 -0.967709 -2.34742 148.988
1 -0.474113 -0.645092 150.615
3 0.423161 -1.20975 150.79
3 -0.110002 0.3462 150.627
1 -1.43966 -0.8195 151.825
2 -2.52514 0.0677839 151.681
2 -1.91305 -2.12811 151.819
1 -0.720348 -0.536187 153.18
3 -0.0792995 -1.35828 153.417
3 -0.0844048 0.286349 152.983
1 -1.52048 -0.210824 154.467
2 -1.96627 1.10066 154.447
2 -2.6329 -1.06178 154.55
1 -0.535752 -0.389951 155.671
3 -0.233108 -1.40713 155.625
2 0.74852 0.349947 155.437
1 -1.16471 -0.024358 157.064
2 -1.315 1.36938 157.193
2 -2.4204 -0.580944 157.13
1 -0.318112 -0.586517 158.228
3 -0.161943 -1.61153 157.989
3 0.653348 -0.134647 158.186
1 -0.874623 -0.518345 159.698
2 -1.57424 0.673117 159.882
2 -1.76582 -1.57656 159.961
1 0.337214 -0.589674 160.669
3 0.951281 -1.43088 160.404
3 0.97383 0.248612 160.437
1 0.0557597 -0.792047 162.185
2 -1.08177 -0.080083 162.583
2 -0.200161 -2.15417 162.414
1 1.27479 -0.330532 163.048
2 2.54802 -0.959376 162.58
3 1.50653 0.67132 162.807
1 1.0935 -0.367555 164.598
2 -0.200371 -0.812971 164.898
2 2.00308 -1.27671 165.144
1 1.30319 1.03742 165.253
3 2.31884 1.36373 165.096
3 0.619694 1.7279 164.796
1 0.964098 1.11131 166.754
2 -0.432039 1.05332 166.893
2 1.52055 0.00107765 167.397
1 1.51151 2.43636 167.428
3 2.57358 2.40743 167.441
3 1.27592 -3.0343 166.86
1 0.933593 2.66157 168.829
2 1.67675 -2.64427 169.485
2 -0.38024 3.11242 168.669
1 0.972623 1.34554 169.693
3 0.482556 0.578953 169.14
2 2.35505 0.921328 169.871
1 0.182774 1.38139 171.095
2 0.793837 2.22356 172.016
2 -1.13711 1.80745 170.923
1 0.187037 -0.0333314 171.666
3 -0.25103 -0.661469 170.91
3 1.23007 -0.257843 171.784
1 -0.538412 -0.435988 172.991
2 -1.33688 0.622532 173.445
2 -1.38264 -1.4936 172.685
1 0.463413 -0.863353 174.116
3 1.17987 -1.58682 173.757
3 1.04656 0.00334804 174.369
1 -0.20188 -1.45338 175.375
2 -1.36062 -0.714918 175.703
2 -0.57835 -2.79016 175.132
1 0.844262 -1.37306 176.545
2 2.09315 -2.02561 176.155
3 1.01211 -0.318192 176.629
1 0.347568 -1.86759 177.987
2 -1.05298 -1.86797 178.064
2 0.790489 -3.15766 178.291
1 0.940797 -0.890211 178.999
3 2.00022 -0.940014 178.885
3 0.618468 0.101521 178.717
1 0.616034 -1.15199 180.514
2 -0.752747 -1.32612 180.649
2 1.25483 -2.31799 180.972
1 1.07801 0.0841094 181.337
3 2.15698 0.097988 181.398
3 0.740025 0.941823 180.779
1 0.466025 0.232559 182.755
2 -0.880259 0.566439 182.627
2 0.523442 -0.994971 183.419
1 1.21886 1.33717 183.594
3 2.21295 0.992885 183.74
3 1.32873 2.25444 183.042
1 0.735836 1.71315 185.014
2 1.67024 2.57295 185.576
2 -0.464162 2.42143 184.936
1 0.586599 0.459957 185.958
3 0.0690695 -0.309342 185.433
3 1.57725 0.103256 186.161
1 -0.166614 0.66942 187.281
2 0.297661 1.8409 187.905
2 -1.52673 0.847772 186.993
1 0.0168524 -0.574766 188.246
3 -0.0734177 -1.49308 187.674
3 1.00525 -0.550607 188.643
1 -0.871311 -0.6444 189.498
2 -1.73097 0.468353 189.514
2 -1.67422 -1.79377 189.436
1 -0.0281148 -0.666264 190.845
2 1.02128 -1.70319 190.821
3 0.525124 0.236108 190.896
1 -0.924647 -0.807223 192.141
2 -2.12196 -0.117706 191.999
2 -1.24531 -2.14607 192.348
1 -0.218944 -0.319054 193.42
3 0.434988 -1.11566 193.656
3 0.388774 0.519801 193.233
1 -1.02833 0.0178929 194.705
2 -1.68351 1.24904 194.538
2 -1.9767 -0.965213 194.93
1 -0.0104702 0.0699651 195.897
3 0.0790329 -0.897245 196.356
3 0.94929 0.340448 195.488
1 -0.401657 1.05737 197.008
2 -0.165079 2.3561 196.557
2 -1.76522 0.936148 197.272
1 0.404188 0.767364 198.338
3 -0.0511872 -0.0674712 198.821
2 1.81017 0.356559 198.033
1 0.329149 1.90045 199.404
2 1.00648 3.02985 198.938
2 -1.01427 2.2521 199.622
1 0.974455 1.45651 200.752
3 1.99554 1.26079 200.521
3 0.926069 2.25794 201.452
1 0.45006 0.157736 201.398
2 -0.899492 0.0193674 201.115
2 1.12147 -0.905025 200.799
1 0.663891 0.152695 202.974
3 1.70774 0.118732 203.184
3 0.326355 1.08933 203.321
1 -0.0309771 -0.912201 203.812
2 -1.42015 -0.678102 203.788
2 0.224844 -2.13964 203.193
1 0.459774 -0.949086 205.325
2 1.89197 -0.769887 205.378
3 -0.0230746 -0.155735 205.852
1 0.006524 -2.27091 206.097
2 -1.36954 -2.49213 205.966
2 0.646315 2.92353 205.594
1 0.298007 -2.1472 207.587
3 -0.217609 -2.96205 208.037
3 1.35605 -2.2984 207.704
1 -0.22536 -0.846403 208.313
2 0.422362 0.278084 207.808
2 -1.6096 -0.680586 208.106
1 0.0928106 -1.0353 209.825
3 -0.561165 -1.78475 210.241
3 1.08651 -1.43538 209.886
1 0.0290367 0.210375 210.746
2 0.873013 1.19588 210.229
2 -1.27356 0.715921 210.716
1 0.413825 -0.0878867 212.24
3 -0.314916 -0.787838 212.568
2 1.74121 -0.7684 212.354
1 0.328733 1.14599 213.208
2 1.00092 2.2293 212.623
2 -1.00905 1.53162 213.357
1 0.91923 0.890082 214.619
3 1.83619 0.325255 214.582
3 1.1658 1.85967 215.009
1 -0.0115671 0.189692 215.662
2 -1.02645 1.07204 216.014
2 -0.608038 -0.936964 215.099
1 0.751188 -0.22454 216.965
3 1.203 -1.20117 216.905
3 1.53628 0.481214 217.062
1 -0.0803862 -0.251641 218.257
2 -0.316405 1.05527 218.732
2 -1.32454 -0.859601 218.005
1 0.752961 -1.09611 219.293
2 0.864312 -2.48366 218.839
3 1.76257 -0.781941 219.249
1 0.289728 -1.01988 220.83
2 -1.10733 -1.12625 220.888
2 0.79851 -2.11952 221.524
1 0.718207 0.252186 221.581
3 1.77218 0.473049 221.492
3 0.190136 1.05648 221.139
1 0.382143 0.323158 223.103
2 -0.863107 -0.252381 223.338
2 1.34384 -0.385653 223.832
1 0.383481 1.82245 223.566
3 1.42045 2.04815 223.699
3 -0.0652703 2.43464 222.795
1 -0.292778 2.18121 224.894
2 0.174419 -2.8978 225.344
2 -1.65344 2.29319 224.666
1 0.057596 1.06285 225.972
3 -0.201576 0.101638 225.586
2 1.54482 0.990432 226.176
1 -0.6828 1.1723 227.326
2 -0.116429 2.20578 228.09
2 -2.03268 1.47694 227.106
1 -0.581079 -0.189912 228.088
3 -1.0883 -0.928627 227.496
3 0.457128 -0.466868 228.115
1 -1.18173 -0.23698 229.514
2 -2.04478 0.854272 229.695
2 -1.9563 -1.40043 229.667
1 -0.038105 -0.205634 230.602
3 0.891735 -0.546726 230.205
3 0.170911 0.823554 230.831
1 -0.383776 -0.960018 231.891
2 -1.67146 -0.582382 232.274
2 -0.406534 -2.36065 231.677
1 0.651308 -0.647802 233.051
2 1.99393 -0.917966 232.575
3 0.465357 0.345056 233.371
1 0.396364 -1.49492 234.386
2 -0.944392 -1.46963 234.77
2 0.756232 -2.83835 234.185
1 1.25781 -0.936336 235.512
3 1.62438 -1.81136 235.995
3 2.07219 -0.452578 235.016
576
 Atoms. Timestep: 100
1 0.703259 0.0421688 10.9927
2 -0.128203 0.902722 235.75
2 -0.0961038 -0.612162 11.9368
1 1.8011 0.85106 11.7613
3 2.61792 0.185129 11.8981
3 2.15594 1.58609 11.0645
1 1.44119 1.57147 13.0703
2 2.41918 2.51035 13.3162
2 0.18993 2.2106 12.8998
1 1.42641 0.608748 14.3382
3 1.13632 -0.351736 14.0153
3 2.41831 0.50656 14.7286
1 0.491092 0.895843 15.5204
2 0.578288 2.25103 15.8881
2 -0.809175 0.576198 15.1606
1 0.969484 -0.00971001 16.7491
3 1.40218 -0.900498 16.3008
3 1.76318 0.481344 17.2707
1 -0.121598 -0.398094 17.7209
2 -0.87253 0.740358 18.0459
2 -1.04012 -1.36959 17.2101
1 0.484472 -1.01146 19.0656
3 1.06433 -1.91302 18.8298
3 1.22757 -0.33261 19.4372
1 -0.401902 -1.43516 20.2365
2 -1.43896 -0.529836 20.3252
2 -1.0379 -2.7121 20.0046
1 0.443412 -1.44655 21.5766
2 1.68473 -2.31062 21.4457
3 0.717458 -0.426897 21.7664
1 -0.372422 -1.90205 22.7827
2 -1.69472 -1.44885 22.7205
2 -0.400029 3.05534 22.8744
1 0.421209 -1.30811 24.011
3 0.747969 -2.11851 24.632
3 1.24331 -0.745414 23.6479
1 -0.385284 -0.466188 25.0129
2 -0.9266 0.645 24.3205
2 -1.53762 -1.24374 25.4485
1 0.45185 -0.0205645 26.2813
3 0.467481 -0.845567 26.9533
3 1.4632 0.132633 25.9024
1 0.0229997 1.17728 27.0857
2 0.586612 2.34578 26.5032
2 -1.39023 1.30371 27.0023
1 0.460066 1.1476 28.6126
3 -0.0584522 0.315595 29.0127
2 1.90998 1.01503 28.6462
1 0.00500306 2.4037 29.4983
2 0.656611 -2.73071 29.023
2 -1.37329 2.60852 29.4047
1 0.364405 2.30987 30.9541
3 1.39527 2.63538 31.0622
3 -0.25442 3.09889 31.5374
1 0.251766 0.894814 31.687
2 -0.964703 0.265616 31.3722
2 1.2853 0.0837191 31.1336
1 0.385203 0.949549 33.2441
3 1.39609 1.15296 33.4452
3 -0.227766 1.71597 33.6293
1 -0.0437875 -0.260687 34.0954
2 -1.45872 -0.265066 34.1875
2 0.329136 -1.45508 33.442
1 0.514925 -0.229946 35.5777
2 1.92086 0.104579 35.673
3 0.0233051 0.628326 35.9546
1 0.179195 -1.47336 36.5183
2 -1.09818 -1.98395 36.2787
2 1.08731 -2.50214 36.3297
1 0.32852 -1.00694 37.9796
3 1.39467 -1.10477 38.1745
3 0.115461 -0.0152039 38.0491
1 -0.407833 -1.82644 39.165
2 -1.75827 -1.52626 39.1971
2 -0.316999 3.15436 38.8863
1 0.152397 -1.6083 40.5906
3 0.029878 -2.56731 41.0938
3 1.18198 -1.39311 40.4754
1 -0.536177 -0.523421 41.4698
2 -0.698042 0.685105 40.7704
2 -1.82995 -0.983551 41.7204
1 0.16778 -0.257087 42.8578
3 0.215448 -1.20307 43.3612
2 1.53417 0.323995 42.6057
1 -0.623428 0.635179 43.8533
2 -0.448935 1.99242 43.5248
2 -2.00958 0.410693 43.8374
1 -0.0737728 0.355676 45.2724
3 0.131647 -0.681622 45.3017
3 0.849825 0.925909 45.36
1 -0.977286 0.721465 46.4953
2 -1.55209 1.96596 46.246
2 -1.99983 -0.220647 46.6355
1 -0.13025 0.825104 47.8085
3 0.665052 0.115459 47.7156
3 0.263204 1.81648 47.8345
1 -0.873704 0.540304 49.1067
2 -2.00396 1.36477 49.1904
2 -1.31524 -0.784639 49.0738
1 0.105443 0.821486 50.3435
2 1.47479 0.428318 50.0126
3 0.30666 1.89408 50.3658
1 -0.333476 0.321086 51.7718
2 -1.70688 0.649107 52.0165
2 -0.256961 -1.0658 51.8847
1 0.566776 1.01732 52.834
3 1.59153 0.828337 52.5209
3 0.43381 2.07509 52.731
1 0.43338 0.549971 54.3001
2 -0.919534 0.709066 54.6698
2 0.80294 -0.799271 54.4798
1 1.38848 1.41805 55.1996
3 2.42158 1.27201 54.8883
3 1.13775 2.4441 54.9198
1 1.27237 1.25895 56.7319
2 2.28895 2.04007 57.2758
2 0.0932008 1.81497 57.1483
1 1.36492 -0.281703 57.21
3 0.541339 -0.749923 56.6972
2 2.66174 -0.847916 56.8159
1 1.15628 -0.522265 58.7396
2 2.07213 0.253046 59.5107
2 -0.122507 -0.0896005 59.095
1 1.38826 -1.96543 59.1743
3 1.05431 -2.62467 58.421
3 2.47662 -2.06769 59.3785
1 0.623148 -2.43132 60.4581
2 -0.727686 -2.62598 60.0836
2 1.05751 2.64077 60.9764
1 0.64028 -1.38945 61.5817
3 1.69643 -1.27387 61.8697
3 0.304949 -0.431415 61.1956
1 -0.0846394 -1.62951 62.9495
2 -1.50906 -1.45642 62.7471
2 0.143059 -2.96779 63.3804
1 0.471784 -0.548401 63.9333
2 1.83871 -0.87513 64.379
3 0.510574 0.398452 63.4721
1 -0.46744 -0.417852 65.2119
2 -1.51808 0.495525 64.8984
2 -1.05399 -1.64737 65.5658
1 0.28894 0.152731 66.4049
3 1.03097 -0.584311 66.6737
3 0.870621 0.956801 66.0207
1 -0.512027 0.640467 67.6649
2 -0.887577 1.97202 67.4869
2 -1.64524 -0.148406 67.8144
1 0.404002 0.508055 68.9121
3 0.562036 -0.532246 69.1597
3 1.40978 0.881105 68.7206
1 -0.0316105 1.31437 70.2085
2 0.271896 2.66008 70.0547
2 -1.43145 1.22764 70.3431
1 0.640564 0.736722 71.4947
3 0.0898023 -0.126869 71.7808
3 1.58984 0.334218 71.2788
1 0.851834 1.69065 72.7574
2 1.95051 2.51819 72.5163
2 -0.190755 2.52663 72.9966
1 1.1779 0.896319 74.0454
3 1.67208 -0.0280154 73.8335
3 1.9117 1.41029 74.6315
1 0.0438139 0.579794 75.0424
2 -0.481305 1.74771 75.5498
2 -0.969055 -0.102292 74.3867
1 0.521576 -0.293911 76.2669
3 0.860155 -1.21256 75.886
3 1.34265 0.147002 76.787
1 -0.488994 -0.572437 77.4087
2 -1.23715 0.593877 77.7289
2 -1.47772 -1.51198 76.9383
1 0.30397 -1.09522 78.6792
2 1.30316 -2.11814 78.2894
3 0.959437 -0.285466 78.9479
1 -0.515749 -1.52537 79.9464
2 -1.79283 -1.0266 79.9077
2 -0.63432 -2.8992 80.0331
1 0.306442 -1.0451 81.1719
3 0.840455 -1.83546 81.5369
3 1.0029 -0.303572 80.8609
1 -0.500561 -0.395364 82.3247
2 -1.20653 0.715808 81.786
2 -1.47415 -1.3041 82.754
1 0.369234 0.067851 83.5496
3 0.536595 -0.774311 84.1705
3 1.30772 0.324229 83.2084
1 -0.219323 1.17444 84.4168
2 0.101635 2.39213 83.8869
2 -1.56901 1.09344 84.5126
1 0.458669 1.04712 85.8572
3 0.260285 0.0596246 86.291
2 1.94783 1.03044 85.7244
1 -0.00494564 2.17381 86.842
2 0.629967 -2.92609 86.5654
2 -1.32518 2.39921 86.7603
1 0.298365 1.84016 88.3307
3 1.19909 2.32079 88.6922
3 -0.484474 2.29782 88.8869
1 0.328149 0.344217 88.7568
2 -0.849329 -0.263356 88.3716
2 1.36975 -0.271746 88.1751
1 0.477267 0.214814 90.321
3 1.28071 0.713603 90.633
3 -0.364447 0.717267 90.7413
1 0.657223 -1.15534 90.9425
2 -0.475463 -2.00809 90.5768
2 1.79274 -1.77802 90.4148
1 0.80013 -0.972086 92.5214
2 2.04633 -0.221315 92.7675
3 0.0430426 -0.294957 92.8806
1 0.690336 -2.25162 93.4353
2 -0.525576 -2.89457 93.0819
2 1.77444 -3.17146 93.1891
1 0.694752 -1.8789 94.9299
3 0.578124 -2.77337 95.4793
3 1.67867 -1.42771 95.1248
1 -0.315616 -0.875918 95.5558
2 -0.254451 0.352695 94.8687
2 -1.54933 -1.41435 95.3889
1 -0.00422161 -0.647269 97.1055
3 -0.172634 -1.54343 97.675
3 1.04937 -0.460316 97.152
1 -0.75966 0.426859 97.8842
2 -0.74896 1.57458 97.1017
2 -2.12361 0.0462718 97.9851
1 -0.192829 0.647502 99.3523
3 -0.515961 -0.155682 99.9567
2 1.30476 0.440279 99.3981
1 -0.621385 1.91825 100.119
2 0.0157863 2.98375 99.5662
2 -2.00546 2.21318 100.008
1 -0.218247 1.85104 101.648
3 0.832079 1.64645 101.757
3 -0.161974 2.82695 102.021
1 -1.01434 0.922368 102.649
2 -2.17556 1.61389 103.032
2 -1.34744 -0.222267 101.911
1 -0.210483 0.445552 103.891
3 0.58326 -0.084013 103.588
3 0.247452 1.34699 104.247
1 -0.844974 -0.300532 105.065
2 -2.02515 0.412059 105.417
2 -1.26602 -1.56004 104.561
1 0.159747 -0.411655 106.288
2 1.52183 -0.65051 105.862
3 0.118129 0.554967 106.753
1 -0.229145 -1.54813 107.334
2 -1.5973 -1.39036 107.672
2 -0.0831943 -2.82798 106.76
1 0.611941 -1.5351 108.623
3 0.508038 -2.41387 109.175
3 1.68777 -1.56543 108.323
1 0.440887 -0.304849 109.567
2 0.883318 0.85756 108.884
2 -0.911234 -0.123453 109.815
1 1.19107 -0.331922 110.954
3 1.45124 -1.27503 111.264
3 2.10088 0.23623 110.886
1 0.497646 0.206008 112.226
2 -0.265491 1.28867 111.866
2 -0.389743 -0.768881 112.689
1 1.52432 0.590853 113.363
3 2.22814 -0.174214 113.449
2 2.32155 1.73069 112.948
1 0.846606 0.759012 114.809
2 1.62436 1.61735 115.627
2 -0.471082 1.34074 114.652
1 0.754627 -0.54027 115.573
3 -0.119436 -1.12177 115.218
3 1.6173 -1.22169 115.382
1 0.571313 -0.43202 117.131
2 1.65504 0.196881 117.734
2 -0.564955 0.337889 117.395
1 0.466569 -1.86141 117.708
3 -0.0666515 -2.43339 116.946
3 1.46183 -2.28693 117.773
1 -0.186113 -2.05833 119.095
2 -1.52307 -1.7154 119.055
2 -0.219259 2.89015 119.437
1 0.578163 -1.25589 120.226
2 1.68519 -2.07351 120.825
3 1.1341 -0.467573 119.778
1 -0.286614 -0.623359 121.385
2 -0.912182 0.492859 120.911
2 -1.3151 -1.52405 121.794
1 0.537338 -0.213418 122.611
3 0.758638 -1.09648 123.198
3 1.49425 0.0789947 122.244
1 -0.0131039 0.888506 123.579
2 0.152344 2.12822 122.954
2 -1.37998 0.68734 123.757
1 0.648204 0.889156 124.983
3 0.554673 -0.111352 125.349
3 1.68168 1.03505 124.853
1 0.185367 1.87227 126.136
2 0.747341 3.1232 125.898
2 -1.16574 2.02744 126.104
1 0.64775 1.25621 127.513
3 0.839072 0.221577 127.33
3 1.57097 1.74722 127.76
1 -0.372315 1.33655 128.686
2 -0.823047 2.68211 128.928
2 -1.4867 0.590648 128.364
1 0.314236 0.779793 129.953
3 0.857221 -0.122474 129.763
3 1.0507 1.5126 130.223
1 -0.63939 0.496791 131.151
2 -1.59471 1.4686 131.272
2 -1.30167 -0.699722 130.899
1 0.137674 0.419705 132.514
3 1.12782 0.102841 132.247
3 0.201104 1.38662 132.976
1 -0.364474 -0.512343 133.615
2 -1.58902 -0.074992 134.077
2 -0.539804 -1.81604 133.139
1 0.664374 -0.557579 134.817
2 2.04678 -0.682057 134.262
3 0.53171 0.462287 135.306
1 0.39983 -1.57127 135.993
2 -0.985992 -1.61295 136.274
2 0.817537 -2.85133 135.575
1 1.22352 -1.19664 137.242
3 2.24992 -1.15048 136.951
3 0.960607 -0.222258 137.587
1 1.14616 -2.19318 138.452
2 -0.184971 -2.47248 138.812
2 1.75112 2.90371 138.166
1 1.88249 -1.60049 139.719
3 2.25189 -2.3424 140.353
3 2.78493 -1.14857 139.332
1 1.03747 -0.570411 140.513
2 0.211131 0.189341 139.638
2 0.220395 -1.23445 141.408
1 2.05746 0.382868 141.269
3 2.72647 -0.227892 141.827
2 3.02108 0.996101 140.322
1 1.4068 1.43647 142.254
2 2.29986 2.51115 142.502
2 0.279168 1.96204 141.619
1 0.9975 0.849533 143.636
3 0.426456 -0.0228534 143.522
3 1.8604 0.447915 144.077
1 0.276017 1.83627 144.626
2 0.807025 3.13436 144.541
2 -1.04189 1.8915 144.245
1 0.373596 1.28931 146.107
3 1.29029 0.788626 146.233
3 0.45022 2.1337 146.735
1 -0.711076 0.380318 146.71
2 -1.89712 1.07001 146.885
2 -0.947511 -0.713702 145.841
1 -0.103928 -0.111002 148.083
2 1.11436 -0.892599 147.777
3 0.246767 0.766002 148.606
1 -1.01954 -0.894622 149.134
2 -2.33946 -0.351989 149.057
2 -1.12469 -2.26966 148.82
1 -0.547478 -0.770557 150.619
3 0.208737 -1.52357 150.809
3 -0.0719702 0.159273 150.591
1 -1.57719 -0.892284 151.78
2 -2.68011 -0.0289844 151.59
2 -2.03253 -2.22087 151.812
1 -0.751945 -0.580851 153.064
3 -0.152698 -1.4679 153.212
3 -0.118804 0.222521 152.967
1 -1.60858 -0.24724 154.345
2 -2.08461 1.05227 154.22
2 3.56833 -1.05582 154.423
1 -0.692808 -0.386814 155.612
3 -0.340827 -1.38038 155.679
2 0.575821 0.333541 155.474
1 -1.34985 -0.100654 157.051
2 -1.57048 1.2352 157.155
2 -2.55581 -0.770006 157.215
1 -0.389129 -0.577534 158.155
3 -0.161692 -1.57975 157.918
3 0.539637 -0.0292519 158
1 -0.84159 -0.439212 159.672
2 -1.52052 0.823011 159.917
2 -1.72965 -1.42661 159.956
1 0.339692 -0.521778 160.679
3 1.00362 -1.32663 160.358
3 0.919907 0.384192 160.525
1 0.123187 -0.747865 162.146
2 -0.993467 -0.0496378 162.595
2 -0.0896551 -2.14703 162.323
1 1.35627 -0.338327 163.058
2 2.54862 -1.05231 162.546
3 1.58368 0.647061 162.853
1 1.21105 -0.388491 164.633
2 -0.0209435 -0.935438 164.921
2 2.18842 -1.24577 165.178
1 1.33198 1.01519 165.254
3 2.33313 1.31894 165.103
3 0.678535 1.66339 164.791
1 1.01089 1.02795 166.774
2 -0.367555 0.892906 166.872
2 1.61017 -0.0852876 167.394
1 1.49542 2.3972 167.447
3 2.56081 2.38605 167.515
3 1.25132 -3.13373 166.727
1 0.936749 2.66485 168.822
2 1.73827 -2.63864 169.418
2 -0.325698 -3.12637 168.659
1 0.920524 1.33017 169.759
3 0.422909 0.559991 169.216
2 2.30599 0.803612 169.817
1 0.262794 1.43376 171.152
2 0.997623 2.19237 172.024
2 -1.02316 2.06158 171.048
1 0.100399 -0.0401202 171.613
3 -0.408707 -0.478951 170.786
3 1.06784 -0.464771 171.714
1 -0.677209 -0.366437 172.975
2 -1.46434 0.7478 173.355
2 -1.51834 -1.42029 172.758
1 0.330262 -0.732404 174.094
3 1.06799 -1.42168 173.756
3 0.918928 0.119406 174.389
1 -0.197487 -1.43074 175.412
2 -1.31991 -0.722583 175.807
2 -0.555503 -2.79827 175.155
1 0.862771 -1.40111 176.499
2 2.1333 -2.12969 176.194
3 1.23863 -0.410665 176.592
1 0.382997 -1.81992 177.984
2 -1.02043 -1.86087 178.042
2 0.853549 -3.11594 178.3
1 0.896291 -0.804122 179.027
3 1.94939 -0.807682 178.885
3 0.52118 0.179351 178.828
1 0.644492 -1.19346 180.535
2 -0.728295 -1.44421 180.741
2 1.35171 -2.34131 180.888
1 1.05601 0.0179553 181.401
3 2.13376 0.079403 181.532
3 0.779864 0.830708 180.823
1 0.527644 0.184876 182.876
2 -0.818184 0.52113 182.853
2 0.690367 -1.03003 183.583
1 1.36792 1.29335 183.557
3 2.37361 0.995128 183.702
3 1.3962 2.16205 182.895
1 0.728905 1.69251 184.932
2 1.64141 2.58916 185.532
2 -0.463621 2.3427 184.758
1 0.519771 0.457181 185.842
3 -0.126739 -0.276247 185.386
3 1.46017 -0.0301459 186.039
1 -0.205398 0.67762 187.206
2 0.337302 1.79974 187.804
2 -1.58932 0.935352 186.954
1 -0.0443951 -0.555345 188.158
3 -0.338216 -1.41533 187.573
3 0.983992 -0.559334 188.462
1 -0.91898 -0.610355 189.459
2 -1.71672 0.545559 189.538
2 -1.76027 -1.6654 189.386
1 -0.105847 -0.701714 190.762
2 0.934741 -1.80724 190.668
3 0.473656 0.184134 190.885
1 -0.995769 -0.903016 192.055
2 -2.1813 -0.121714 191.958
2 -1.42772 -2.19556 192.161
1 -0.215266 -0.544514 193.352
3 0.346859 -1.40559 193.623
3 0.536752 0.135083 193.095
1 -1.00754 0.0222552 194.567
2 -1.61399 1.29334 194.289
2 -2.03837 -0.88036 194.897
1 -0.114629 0.165626 195.849
3 0.0259621 -0.795571 196.29
3 0.889477 0.54317 195.591
1 -0.489175 1.07262 197.04
2 -0.2601 2.38194 196.627
2 -1.84358 0.987102 197.265
1 0.339454 0.730954 198.344
3 0.00634028 -0.197365 198.832
2 1.67626 0.382114 197.922
1 0.39641 1.94592 199.39
2 1.08 3.07307 198.873
2 -0.915382 2.38097 199.722
1 1.06521 1.43129 200.677
3 2.07384 1.27539 200.518
3 0.962329 2.21738 201.357
1 0.567135 0.101837 201.332
2 -0.765232 -0.174685 200.934
2 1.39858 -0.91212 200.797
1 0.667089 0.161249 202.888
3 1.68201 0.215674 203.177
3 0.226804 1.07408 203.152
1 -0.0607306 -0.986361 203.65
2 -1.44473 -0.860584 203.469
2 0.368562 -2.25346 203.08
1 0.31995 -0.927616 205.156
2 1.76747 -0.642547 205.292
3 -0.0735784 -0.0571379 205.663
1 -0.079399 -2.27037 205.95
2 -1.44244 -2.49791 205.725