LAMMPS data file via write_data, version 2 Aug 2023, timestep = 40000, units = real

1152 atoms
3 atom types

-1.9736143532345274 4.924614353234457 xlo xhi
-4.38547320988123 8.254473209881187 ylo yhi
-79.19651584589424 325.8881178472747 zlo zhi

Masses

1 12.0107
2 18.998404
3 1.00794

Atoms # charge

526 1 -0.1831245450192448 3.9224361690912195 -1.6610483621098355 -74.05726048378706 -2 0 1
528 3 0.1765624264094286 4.571046839449373 -0.8240433112393206 -73.89554243101648 -2 0 1
527 3 0.1976912688394439 4.548827162361969 -2.53044405283182 -74.09881787048371 -2 0 1
525 2 -0.1238671915653538 2.294972541671644 -2.439645763319134 -75.67701436552758 -2 0 1
523 1 0.1107260839832893 3.294815072689061 -1.5001427148594697 -75.48166659078893 -2 0 1
524 2 -0.1271022512356477 2.7379384941547924 -0.2290163552352782 -75.61278426959859 -2 0 1
520 1 -0.1912286124778246 4.4448814718647744 -1.7021624052682967 -76.53119674431787 -2 0 1
522 3 0.1865945402317098 -1.7682640589935288 -0.8989330917269225 -76.43448773643718 -1 0 1
521 3 0.1897300924534066 -1.9243742605011749 -2.5870819362738406 -76.26821428667711 -1 0 1
531 2 -0.1263880594492807 2.3456097013467954 -3.0320053669110627 -72.87882368970966 -2 0 1
517 1 0.1142319146251856 4.090848241715006 -1.8268785638681875 -78.02658709755268 -2 0 1
519 2 -0.128662740958273 3.394051616091647 -3.0209415096537677 -78.25376098244756 -2 0 1
518 2 -0.1254430055612421 3.251037871412157 -0.7563188197495578 -78.41082292521702 -2 0 1
515 3 0.189029600350257 -0.7162629984117079 -2.338630355855073 -78.28930031823947 -1 0 1
516 2 -0.1236594949398328 -0.9194506256360193 -0.41720065980433585 -78.91500467334808 -1 0 1
514 1 -0.07337136712136427 -1.4507716143041334 -1.792595189002168 -78.83948087746904 -1 0 1
1088 2 -0.1286212993796376 0.24512381842002906 7.844846177457555 -77.6862841222531 -1 0 1
1085 3 0.1719333747294533 2.187020175960532 5.214536261012226 -78.17773634815082 -1 0 1
1096 1 -0.1841161937966513 0.47558292437313554 6.363633937383456 -73.4783786159166 -1 0 1
1098 3 0.19831279563456 1.0348074117607973 7.27029429057602 -73.32979066651376 -1 0 1
1097 3 0.1761905240325617 1.2106474795424695 5.571672475654385 -73.44255276070831 -1 0 1
1095 2 -0.1309304897944775 -1.002893847691482 5.37999435179778 -75.08835819538164 -1 0 1
1094 2 -0.1262676164317488 -0.8015223439785055 7.638448228364993 -75.0538565208235 -1 0 1
1093 1 0.1073699350197951 -0.09014427184286289 6.435490638504321 -74.89320773490883 -1 0 1
1090 1 -0.07872700028651985 1.1016773392004184 6.3320105357357885 -75.94558283005105 -1 0 1
1091 3 0.1706768384346327 1.5201217368671802 5.352506164445668 -75.86755692001684 -1 0 1
1092 2 -0.1278250680658121 2.192718360708623 7.2339112884097325 -75.58480575785613 -1 0 1
1089 2 -0.1312406534039287 -0.37884625833662944 5.667126950542832 -77.79586137988687 -1 0 1
1087 1 0.1114441739311577 0.6815970404059404 6.53680651033328 -77.45565907475422 -1 0 1
1086 3 0.1966509146268294 2.716291607481236 6.831299602329818 -78.00236436835482 -1 0 1
1084 1 -0.1947173751357124 1.9016512187722077 6.230065600383076 -78.33948003283261 -1 0 1
529 1 0.107732944464218 3.0145105905312706 -1.7982734613773275 -72.83445938447886 -2 0 1
530 2 -0.1307452531422023 2.0432682527432062 -0.7813280863592449 -72.85066666980873 -2 0 1
533 2 -0.128383995176226 -1.7487018462237485 -2.464927284224734 -71.67118621765452 -1 0 1
532 1 -0.08184250843023831 3.9168455591738836 -1.6835534941364552 -71.52316225541668 -2 0 1
534 3 0.1687915424914976 4.230929805961674 -0.6651362284078619 -71.45498025376152 -2 0 1
536 2 -0.130919065148217 1.946978570131367 -1.4133847404342905 -70.06516788851398 -2 0 1
535 1 0.1101652221365892 3.187163369825244 -2.066773650299194 -70.17997744166397 -2 0 1
540 3 0.1710599961004633 4.288147078393669 -0.6168517716416995 -69.10024340325062 -2 0 1
539 3 0.1902314172890178 -1.8470406236959227 -2.150621522444778 -69.19251307295563 -1 0 1
538 1 -0.1949053129394677 4.108599661127477 -1.6694137143872636 -69.01225272885979 -2 0 1
542 2 -0.128612735582845 2.5582445753039798 -1.2539226280468858 -67.18972343357585 -2 0 1
541 1 0.1050715450361615 3.7054628734354473 -1.972262679772267 -67.53295458809738 -2 0 1
543 2 -0.1312073965426096 3.4506138629223164 -3.3331156364723586 -67.3764778227688 -2 0 1
544 1 -0.1858104416367653 4.897950249800092 -1.5370769633861392 -66.6164694649834 -2 0 1
546 3 0.1863573487077175 -1.6956818723755673 -0.5595772320536216 -66.91934429452321 -1 0 1
545 3 0.1884715475142235 -1.1710389635262668 -2.1658721030384607 -66.84311235229399 -1 0 1
537 2 -0.127862808442096 2.939164643976312 -3.4520130274272827 -70.1233785113255 -2 0 1
1112 2 -0.1319409990683491 -0.024844578517718707 8.041816045319505 -66.95522143708163 -1 0 1
1110 3 0.1859058538511021 1.639580356741885 7.054196084513009 -68.79080318132841 -1 0 1
1113 2 -0.1280078438862686 -0.5395399636363956 5.876913720620619 -66.54720957270868 -1 0 1
1101 2 -0.1252690842643283 -1.0222155780441993 4.905251239761899 -72.23656106691743 -1 0 1
1100 2 -0.1223330445837266 -1.5157678671363513 7.113898842001854 -72.28946539113461 -1 0 1
1099 1 0.1139512133314231 -0.4734283405895827 6.190225396535878 -72.24130963351047 -1 0 1
1108 1 -0.07359550461015307 0.8793267674515621 6.3506044956112735 -68.4957396630305 -1 0 1
1109 2 -0.1238159396466221 1.5231609243082103 5.0309252776339 -68.53028367613342 -1 0 1
1106 2 -0.1261312043915722 -1.015566377838137 7.636620351828434 -69.44739601390202 -1 0 1
1111 1 0.1066688514900167 0.4691953424256763 6.73418953924504 -67.0155663651356 -1 0 1
1107 2 -0.1226503651714684 -1.1576325176166955 5.362517735259038 -69.45399047844307 -1 0 1
1103 3 0.1880372653011674 1.1512688091098813 5.666750330830876 -70.92920730498946 -1 0 1
1102 1 -0.1848564448422924 0.39269811004196375 6.4149522326535475 -70.95828935769998 -1 0 1
1104 3 0.1913899816705007 0.9016429974914812 7.3542934552485 -71.08792062095415 -1 0 1
1105 1 0.1218484444210507 -0.27836247409719594 6.444310280499037 -69.57756421671276 -1 0 1
1116 3 0.1877229487308422 2.489964017952329 7.172110801241345 -66.58501987535713 -1 0 1
561 2 -0.1289476175367689 0.26314929571763024 -2.814162122974548 -60.41431118101872 -1 0 1
559 1 0.1041432203904033 0.725619219057013 -1.5390568340254513 -60.7279720447207 -1 0 1
563 3 0.2061283773824662 2.753469764360153 -2.2033635694986717 -60.668703671860854 -1 0 1
564 3 0.1798017678928014 2.634787586049381 -0.487828114414528 -60.65207643305311 -1 0 1
562 1 -0.1803054003596977 2.2043154477125366 -1.3912649923992597 -60.241220078248105 -1 0 1
558 3 0.1906183291787171 1.2201089933600024 -0.5004282787978291 -62.54886203449776 -1 0 1
556 1 -0.1805174089084058 0.6044387529518431 -1.3291112851282296 -62.28024914670583 -1 0 1
557 3 0.1957751971869743 1.0211694830827835 -2.1850506409353594 -62.767320511443764 -1 0 1
555 2 -0.1279234471708711 -1.7424162996259127 -1.9025751555490817 -62.22680243569697 -1 0 1
553 1 0.1134881291280279 -0.797409949145103 -1.0710369909137283 -62.855798575255555 -1 0 1
554 2 -0.1269295295908674 -1.1682588941343672 0.2557302652154263 -62.603460496656275 -1 0 1
550 1 -0.06769385067823591 -0.7541270434753415 -1.3631611804439414 -64.41013266509404 -1 0 1
551 3 0.1906243345744257 -0.28168388964090796 -2.313226185113277 -64.54576691526802 -1 0 1
552 2 -0.1236523467795103 0.0649390297185688 -0.36532542740191865 -65.11058879499006 -1 0 1
549 2 -0.1298169616328461 4.072132030411868 -2.664635682876611 -64.68125254536342 -2 0 1
548 2 -0.1261541591542884 3.8947603264303856 -0.40285281186876754 -64.76160357670277 -2 0 1
547 1 0.1097834747678653 4.713849706526794 -1.4985873417215658 -65.09616354958585 -2 0 1
1118 2 -0.1321349342490593 1.4073830643644625 -4.219331900395295 -64.57709116844464 -1 1 1
1124 2 -0.1292478248313314 2.4531363564282573 7.926116425910958 -61.89752299762418 -1 0 1
1128 2 -0.1276121211162043 -1.6390797874660705 7.674690351524594 -62.05356937039597 0 0 1
1127 3 0.1795017922848973 4.876307485608681 5.724905816730285 -62.42684826168487 -1 0 1
1126 1 -0.06593509298600454 4.4361686583945925 6.490507311719462 -61.82459382797607 -1 0 1
1125 2 -0.1340520002843895 2.1158652782692995 5.697672762850754 -61.88771965494202 -1 0 1
1123 1 0.1068875568989661 2.966033303890666 6.710135687279475 -62.35581878722226 -1 0 1
1121 3 0.1712628150398443 3.269482205145084 5.726210502355633 -64.22502501650176 -1 0 1
1120 1 -0.1924854186630124 2.9611969542182646 6.696760816884643 -63.89297809668689 -1 0 1
1122 3 0.1968634015846556 3.7123409821950846 7.379166368391418 -64.2343609482655 -1 0 1
1119 2 -0.1325944239792813 0.552491428506249 6.428853318899451 -64.00448579760484 -1 0 1
1117 1 0.1021455232127674 1.622693543785544 7.0544036516469575 -64.62798812982034 -1 0 1
1115 3 0.1850130877260356 2.0270776588994837 5.572778204918704 -66.14150032875047 -1 0 1
1114 1 -0.1903040131571776 1.7174287323829396 6.6098415685167815 -66.1222809065536 -1 0 1
1129 1 0.1063530618316642 4.474596456380221 6.021728605570583 -60.2943303545806 -1 0 1
560 2 -0.1339908955682502 -0.08352984307018696 -0.6054614050357174 -60.071711166061505 -1 0 1
565 1 0.0909419218611712 2.39598394146861 -1.3611900854801524 -58.72456478036564 -1 0 1
567 2 -0.1335883800385683 1.7326093351642515 -2.4518171708224896 -58.15777701439556 -1 0 1
566 2 -0.137243305083215 1.805744098353144 -0.1952927404552467 -58.203080566834394 -1 0 1
569 2 -0.1289001328574788 4.56468829165524 -2.5932928287301493 -58.98894983477675 -1 0 1
568 1 -0.05771617436852738 3.952604363624051 -1.4034013417209308 -58.39407745133168 -1 0 1
570 3 0.1815312280603792 4.403803978589948 -0.5676161092603129 -58.870618250843684 -1 0 1
573 2 -0.1342124863062476 3.738050808991372 -2.4766123199945094 -56.19228525336329 -1 0 1
574 1 -0.1790919171531328 -1.1223099111270491 -1.27776626676301 -56.60188287059091 0 0 1
5 3 0.1891728736691411 1.4546340348440987 -1.5038267522004762 -55.207439068899575 0 0 0
571 1 0.09529772302182256 4.265571019111116 -1.3421528109504814 -56.84360336035853 -1 0 1
2 2 -0.1411515450610732 -1.6845197642406267 -1.1500815298461196 -54.243316644851944 0 0 0
3 2 -0.1349761457763006 -0.5918206291751162 -2.9803162869389546 -54.98369645337857 0 0 0
6 3 0.1819567413278299 0.6989469248692752 0.03484965956896868 -55.08201718954432 0 0 0
4 1 -0.194672798319848 0.6720296977574085 -0.9731802070944413 -54.7233221834576 0 0 0
572 2 -0.137327651138665 3.6602865675422462 -0.2054907219618176 -56.261331674764705 -1 0 1
1 1 0.1044217581851473 -0.6918321150093245 -1.6003666161724648 -55.125456904778304 0 0 0
575 3 0.2009201267517145 -0.6305190324442638 -1.9729005696558173 -57.25911962159909 0 0 1
576 3 0.178027362513613 -0.7535749229231083 -0.3045905597031888 -56.86106766827909 0 0 1
1147 1 0.1073672969466271 2.3762056585694475 6.713211385373258 -54.162552178359704 0 0 1
1131 2 -0.1283807187775866 4.169669646414591 4.6587497872620425 -60.202314914992165 -1 0 1
1138 1 -0.1892797090331033 0.4921136187142823 6.136360819599801 -57.56369257385623 0 0 1
1130 2 -0.1292654251423921 3.4974167778264365 6.709190604353154 -59.5614691116458 -1 0 1
1144 1 -0.05443171470621343 2.1813112328014927 6.163132088488018 -55.65475056052979 0 0 1
1145 2 -0.1203059241239229 3.000012628533054 4.985588706578508 -55.88274491092676 0 0 1
1133 3 0.1862804221689252 -0.35138808061314175 5.595931579723894 -60.097384827051876 0 0 1
1142 2 -0.1314015865058263 -0.18949488348705756 6.7216819304760325 -55.327525549933796 0 0 1
1143 2 -0.1193308649882555 0.32669426838245075 4.567255816434047 -55.75273623684433 0 0 1
1134 3 0.2056634046342168 -0.7341140372755179 7.262394933704426 -59.8825936048721 0 0 1
1146 3 0.1909907405483168 2.579206020168554 6.891499032194492 -56.32191726910774 0 0 1
1132 1 -0.1757986590552864 -1.049164426781354 6.259148848854654 -59.647505565372384 0 0 1
1140 3 0.189932255648447 0.8775700245956557 7.1049763361377405 -57.801121893001906 0 0 1
1137 2 -0.1228566846354709 -1.5407683068379756 4.8327700928525115 -57.76814175067358 0 0 1
1135 1 0.1170623607480702 -0.978038456898311 6.0683995732808125 -58.09510821631933 0 0 1
1136 2 -0.1274155103331321 -1.729597742330073 7.056703505041334 -57.46659918971831 0 0 1
1141 1 0.1201701407635038 0.67407920807744 5.893893273248457 -56.05636774155316 0 0 1
1139 3 0.1922304049265351 1.0928720989962848 5.42971968399881 -58.096742458208446 0 0 1
1152 3 0.2011692818253506 4.4344885061169705 7.018232568984688 -54.610394143360615 0 0 1
1148 2 -0.1346871714006043 1.8529574849358337 8.008472043143666 -54.06306446830938 0 0 1
13 1 0.1282088209397704 2.7638303090598173 -0.5770289219042506 -51.33974335910365 0 0 0
10 1 -0.1906034722991461 2.4327695355539367 -0.7672368812282229 -52.84908666485889 0 0 0
18 3 0.1988395359079684 4.83425752220351 -0.19771855535756 -51.78790505172675 0 0 0
15 2 -0.1326329083990839 2.069755946626306 -1.5147547626187952 -50.5930771307994 0 0 0
20 2 -0.1066893978694196 -1.8505700990497724 1.1178669898205946 -49.7235788332473 1 0 0
21 2 -0.1150680982764995 3.730698888134925 -0.40710107210083635 -48.716779843013924 0 0 0
27 2 -0.13669907486847 -1.7872942231959401 -3.1883554443535114 -49.363112751284376 1 0 0
14 2 -0.1108785028777795 2.348073421510839 0.6916353930934607 -50.93677071121492 0 0 0
22 1 -0.1781775714738921 -0.8648671555838527 -0.9779912986577295 -49.10174190283469 1 0 0
23 3 0.1963172679936921 -0.19771269541100644 -1.1066812621322661 -49.925025956247666 1 0 0
19 1 0.1579173500951218 4.765591022749539 -0.24350009501546044 -49.63344783730123 0 0 0
16 1 -0.1781392135263477 4.289005920119196 -0.7318954289137438 -51.04329052507893 0 0 0
17 3 0.1886665995648446 4.547747052180079 -1.7630758663415809 -51.13474298034811 0 0 0
11 3 0.1886454878816204 2.963862742337323 -1.6200539729213186 -53.199669385801954 0 0 0
12 3 0.1917230998067775 2.81370021842448 0.07942528262727322 -53.38370367237766 0 0 0
578 2 -0.1387025402670783 4.317442030752997 -3.6608803361506497 -53.01113601665391 0 1 0
8 2 -0.1282866212914019 0.17376042713944395 0.06406578241712957 -52.594257770003594 0 0 0
29 2 -0.1391634135187075 0.9103116313828945 -3.63290680488851 -49.24781709280455 1 0 0
9 2 -0.1405149053595131 0.49301581281558704 -2.183246211255079 -52.6277024435122 0 0 0
7 1 0.0977720705767266 0.9247315222344921 -0.9718851081431108 -53.177689608018056 0 0 0
25 1 0.08390906703627225 -1.0994819922593153 -2.365517680619866 -48.4521706383179 1 0 0
24 3 0.2115531979110153 -0.37223264770555264 -0.34787376378556445 -48.37409097635784 1 0 0
28 1 -0.0752580093194572 0.2830200996400225 -3.0115842581871384 -48.07780930212263 1 0 0
30 3 0.1821997319525116 0.9341225261544599 -2.2230976847753823 -47.76686016512076 1 0 0
582 3 0.1871061719691741 -1.0620811911576786 7.997577564248635 -51.16690182838737 1 0 0
579 2 -0.1333239508425302 3.256572373085527 7.617923471310707 -51.57300814012733 0 0 0
577 1 0.1043597320201077 4.242186707344502 7.668487669685332 -52.557749417297416 0 0 0
581 3 0.1971125998995742 -0.5263798355010962 7.387616820345501 -52.67220667867012 1 0 0
583 1 0.1221245316539839 -1.1422781173289795 5.8645860054768875 -51.27358328510397 1 0 0
586 1 -0.1943429475332756 0.10877580951091925 5.858534525104977 -50.34515475821274 1 0 0
588 3 0.1802971481344069 -0.09718946134580109 6.52492104412385 -49.520825742195235 1 0 0
584 2 -0.1211072687452898 4.615108039628814 5.5657815394458865 -50.52200209942782 0 0 0
591 2 -0.1078832204486247 1.2545327798429358 3.7660213601258548 -50.71957434694933 1 0 0
589 1 0.1589848132464574 0.5365659685420052 4.484434471196858 -49.75798296757884 1 0 0
587 3 0.1937903245407188 0.9486230124762249 6.266812301279524 -50.876961878179316 1 0 0
585 2 -0.1141353509693912 -1.024248073518538 4.89722529544432 -52.27489683981275 1 0 0
580 1 -0.185901169198722 -1.292291286464692 7.280730985553626 -51.931372946391726 1 0 0
1151 3 0.2166433086238757 4.150703638587235 5.731894073497825 -53.51354273811694 0 0 1
1150 1 -0.1524470374729896 3.8488508634186642 6.727549942061929 -53.75612941915125 0 0 1
1149 2 -0.1253082830839307 1.6767028944842828 5.897018884464481 -53.263802212632505 0 0 1
590 2 -0.1101871119284358 -0.5904727677178154 3.749724165041819 -49.42997535540394 1 0 0
597 2 -0.1092242875187248 3.2995956734673983 3.2674332274613107 -48.89435363057671 1 0 0
593 3 0.1861638775208067 2.095396196462066 5.519866570607549 -48.68388678830805 1 0 0
592 1 -0.2056135310831575 1.418443439310603 4.7075047761693405 -48.487098831555144 1 0 0
596 2 -0.1102839909892044 1.4365199382826725 2.3368566882616344 -48.0074603822811 1 0 0
595 1 0.1632669338088387 2.234791000841951 3.482057733408274 -48.01318833789831 1 0 0
594 3 0.1843327126984751 0.7731336529526756 5.017974769339283 -47.694583598185766 1 0 0
26 2 -0.1269449691667721 -1.9184697790901306 -2.2152017206879444 -47.31361812208689 1 0 0
37 1 0.1083068562855503 -0.628224161047884 -4.124186959596319 -44.33376333385858 1 0 0
40 1 -0.180148551821609 -0.6330815576734088 -3.2102309312292863 -43.06263764048135 1 0 0
42 3 0.1977375134596204 -0.918547584364449 -2.2256876658135374 -43.366965050125735 1 0 0
607 1 0.1102591636868743 3.1979308042878607 1.8014168640728832 -43.809181569302794 1 0 0
31 1 0.08368944053867028 0.16423814631293654 -4.052721667332472 -46.863264536193576 1 0 0
35 3 0.1838763246232606 0.946461102979681 -2.948276369218874 -45.22614242234084 1 0 0
36 3 0.1892754937130359 -0.6250020211304965 -2.4546661190777117 -45.70270408651413 1 0 0
602 2 -0.1148080702751156 3.8056392934663794 1.5701804350079467 -46.56513605172836 1 0 0
609 2 -0.1197567953984458 3.731169816613603 0.5118697072607583 -43.97631972208411 1 0 0
34 1 -0.1898913942745538 -0.015383307450757 -3.3199682245385733 -45.53163006121601 1 0 0
41 3 0.1938787144572804 0.3734801005343833 -3.138487790297889 -42.69565874281464 1 0 0
44 2 -0.1195290711682138 4.015497723714135 -3.532902387898846 -42.293695431430486 0 0 0
43 1 0.119785038150752 -1.5305939232147392 -3.6438120789577915 -41.90525633298554 1 0 0
611 3 0.1972873969867027 4.051170735292982 1.7756984022381292 -41.8625868108603 1 0 0
615 2 -0.1218331913174208 1.8222659583122498 0.16473560189014336 -41.75088402781916 1 0 0
608 2 -0.1266308208826067 1.897089264306048 1.795672146113695 -44.34075788484566 1 0 0
613 1 0.1165729021959655 1.9458717017876772 1.5343769355020713 -41.4952036457128 1 0 0
38 2 -0.1249834906149871 -1.9304193728653343 8.115979718330653 -44.63374024944693 1 -1 0
612 3 0.1723669303936717 3.118150983441092 3.196310307578109 -42.18268553625879 1 0 0
45 2 -0.1215983453915338 -1.2802751953484028 7.654931322248821 -41.62128569193494 1 -1 0
605 2 -0.1230605776289538 -1.4104922443813224 2.7572764613258878 -44.07210491739053 2 0 0
610 1 -0.1944705274983265 3.1375113315140766 2.1264938085522127 -42.30684156606102 1 0 0
614 2 -0.1273040323675013 0.7531276636330575 2.1523011703002712 -41.88890681719848 1 0 0
33 2 -0.1370483256509022 1.31256000817951 7.793002722076675 -46.79536949115464 1 -1 0
32 2 -0.1363096246492386 -0.9321379183417315 7.728697754054856 -47.07885750687227 1 -1 0
603 2 -0.1196848852710653 -1.7391367709981138 3.3822982707599873 -46.68599399497253 2 0 0
604 1 -0.07234749070013771 4.10096814775701 2.886695625564772 -44.502479145917434 1 0 0
39 2 -0.1275637375751563 0.12599654053532605 7.373330832308676 -44.102936556363616 1 -1 0
601 1 0.1405146216775041 3.9765623134862693 2.881579166603121 -46.098913746832956 1 0 0
599 3 0.1805665624143627 3.0962907523800407 4.771687501737185 -46.493478707786 1 0 0
600 3 0.1867538325427566 1.9981564194576746 3.62062725865089 -45.87860668412582 1 0 0
598 1 -0.2029865895503228 2.8027312745515687 3.744731142481987 -46.56218656410416 1 0 0
606 3 0.1695346432254112 3.7775476031819997 3.8517736562866247 -44.165036929557296 1 0 0
55 1 0.1207420361004224 4.11670123071605 -2.175728466292812 -37.011522465960084 0 0 0
56 2 -0.128988824903573 3.6648487179339826 -0.8549609352202125 -37.1058760917599 0 0 0
54 3 0.2024363174587927 -1.1521928694693049 -1.5625125431016609 -38.28982372369681 1 0 0
48 2 -0.1224351275822156 -1.0305034867894842 -1.33123047566311 -40.991802938954976 1 0 0
52 1 -0.1928983530018756 -1.738745003121487 -2.442269381219349 -38.140380455356386 1 0 0
53 3 0.181287424948009 -1.072845658474729 -3.2187580873757766 -37.825568875273454 1 0 0
49 1 0.1187472368119239 4.577768802864814 -2.8642434778357293 -39.50318489227978 0 0 0
50 2 -0.1220529418090634 3.475130598070063 -2.031297346397747 -39.80188292053108 0 0 0
621 2 -0.1274183459599511 0.9925704701739981 -0.08307063000224968 -39.05122667208769 1 0 0
46 1 -0.06672958759114266 -1.2227074227144272 -2.7286743500600097 -40.62093087680716 1 0 0
47 3 0.1889332595589023 -0.29942695596209146 -3.063772363641034 -40.22858770928419 1 0 0
617 3 0.1900650181429792 3.1059086700464595 1.26778537013581 -39.693339218572596 1 0 0
57 2 -0.1216609273923499 3.0171941170726466 -3.022515332331553 -37.172595799478266 0 0 0
623 3 0.1836535694322537 2.459256695687931 1.453129234867129 -37.29989555954216 1 0 0
619 1 0.1219558698147806 1.0976834270214697 1.3085880133677792 -38.99118427967813 1 0 0
616 1 -0.1906920141253912 2.1868144960478375 1.7693057567579418 -39.962462466757074 1 0 0
625 1 0.1103822389198401 0.5115241926320069 1.170735992844386 -36.41715873631053 1 0 0
51 2 -0.122724551149776 4.119010724497254 -4.182543218843362 -39.41535432011965 0 0 0
627 2 -0.1314525436737072 0.5380701796628551 -0.22670174680989508 -36.45802628838029 1 0 0
60 3 0.195071114470951 -1.417476650910547 -1.6153992280006455 -35.435331928541366 1 0 0
58 1 -0.1843083310248304 4.770496354180029 -2.4089879493213284 -35.61263277149449 0 0 0
59 3 0.1946418641710292 -1.5657760603846225 -3.3153549685272514 -35.64845275460551 1 0 0
620 2 -0.1276179393564257 -0.13578670374290414 1.8411655429159186 -39.38421209384678 1 0 0
626 2 -0.1313303996084933 -0.823833080051789 1.564982443913511 -36.64712480864553 1 0 0
622 1 -0.08129732350092531 1.4644877799025147 1.7807020225251966 -37.51596694830588 1 0 0
629 3 0.1816376007631134 1.988174745893562 1.3713924296994469 -34.91624934026773 1 0 0
628 1 -0.1929534931597759 0.9599577189843194 1.6602110902530063 -35.026619745904455 1 0 0
618 3 0.1814130258597664 2.3446072347786044 2.817409771967836 -39.80535725352827 1 0 0
624 2 -0.1296057947979133 1.4818033565017332 3.257620754905039 -37.44146927745024 1 0 0
630 3 0.1782076585450512 0.9326440102674165 2.7230029454742652 -35.025165200869004 1 0 0
73 1 0.1378273676491267 3.6629692507913516 -3.2207560306258047 -29.211029271727142 0 0 0
61 1 0.1233040891264234 3.7984137082485674 -2.4749676845588113 -34.42148771860246 0 0 0
62 2 -0.1284963525328953 3.0108961349180667 -1.3123024110511428 -34.410300821243425 0 0 0
63 2 -0.1161618049668834 2.94243823858789 -3.572982579311886 -34.582431584796026 0 0 0
64 1 -0.06596720925963467 4.5986712062657364 -2.5988453710963375 -33.05478705542018 0 0 0
65 2 -0.1127534943435965 -1.2060524358650713 -3.5657067918608836 -33.171500681825464 1 0 0
66 3 0.1891195984520925 -1.826879500840601 -1.6634475437923175 -32.84488778485336 1 0 0
67 1 0.1404511085268316 3.650172116672006 -2.9721941479261864 -31.837952446101973 0 0 0
68 2 -0.1185274521286089 2.4443359288662014 -2.2288346998096014 -31.90246709853311 0 0 0
69 2 -0.105787991659411 3.3110063548312665 -4.335481418114559 -31.86835040176488 0 0 0
72 3 0.1978135740423052 4.423182397906325 -1.6058185000960123 -30.416317041076475 0 0 0
70 1 -0.1758025698933307 4.348670764446931 -2.6691959483719416 -30.51162847295182 0 0 0
71 3 0.2104808278725713 -1.544662552111107 -3.037104353723328 -30.545466209329007 1 0 0
633 2 -0.1306898192933415 0.3227573942294315 -0.21308576527092082 -33.655144470939 1 0 0
74 2 -0.114923597623713 2.2827966146269825 -3.0839187553285177 -29.295900826396675 0 0 0
635 3 0.1814654465696392 1.66490768940927 1.536855541207978 -32.27174115006662 1 0 0
641 2 -0.1189049289270187 0.8024502685353418 1.2575820567579292 -28.924811315360202 1 0 0
639 2 -0.1265761407169316 -0.3335151667636769 0.2502634334376985 -31.03558906526856 1 0 0
631 1 0.09894896694765112 0.17152230963752224 1.1639284083574513 -33.7777015916255 1 0 0
634 1 -0.2079063089234099 0.6687262538888303 1.8771073506938993 -32.469711558827555 1 0 0
637 1 0.1119381269113814 -0.16696219584447447 1.621854811501791 -31.211603320867702 1 0 0
632 2 -0.1351449827336088 -1.1912014406643723 1.4282258519624582 -33.95126821800098 1 0 0
80 2 -0.1221866212583208 3.4788458629440466 -0.3540650437651971 -28.794547427590764 0 0 0
75 2 -0.1114807642519961 3.9441844368006294 8.060750580385102 -29.08505430670577 0 -1 0
643 1 0.1235294836358163 -0.2211103366671321 3.5142784679159975 -29.276811691487204 1 0 0
636 3 0.1746169996435294 0.7220893571433291 2.931478437568602 -32.64531262173216 1 0 0
638 2 -0.1293182760359283 -1.448079585259431 2.1623662521544373 -31.393445616429226 1 0 0
644 2 -0.1186589144951421 -0.462989827560667 4.499703271342758 -30.242833097697044 1 0 0
640 1 -0.05410523093658026 0.5222734832658853 2.2738532911636664 -29.929725095830506 1 0 0
642 3 0.1774023204587465 1.480528950488814 2.621111721608651 -30.24443302987303 1 0 0
645 2 -0.1160276473686957 -1.4715678796334966 3.1149234434314117 -28.754390109019184 1 0 0
76 1 -0.1853265086752548 4.178281515625807 -2.4817634685048917 -27.933095826787756 0 0 0
77 3 0.2053293782471664 4.026950003833949 -3.128179994138332 -27.094349737698828 0 0 0
81 2 -0.1250475698839202 2.2080189961470618 -1.3160414761297883 -27.16436351115174 0 0 0
89 3 0.1947714871154435 2.2412285372334626 -0.6601770341199455 -24.959170984571273 0 0 0
83 3 0.1826008711222678 4.661291267834581 -1.0917454306458927 -25.77811333681848 0 0 0
78 3 0.1985925362954701 -1.662597083897333 -2.3309269634128795 -28.039333817546336 1 0 0
79 1 0.1029797766967783 3.529441407355975 -1.1179108306905579 -27.615581902172742 0 0 0
82 1 -0.0492734453819647 4.382932209793468 -0.37096163978091656 -26.510990702288048 0 0 0
88 1 -0.1837712790890176 2.7544944414420316 0.21352422339924537 -24.609422095697163 0 0 0
90 3 0.1935836501850267 3.4578773211820835 -0.12690092462468794 -23.874782083047734 0 0 0
93 2 -0.1231282243280612 0.6783207667639823 1.4473173377036748 -24.795714114557796 0 0 0
84 2 -0.1180499843680818 -1.2732511728182094 0.1452156603855732 -27.066891979573946 1 0 0
85 1 0.1347992579957618 3.568461511049497 0.7850569023364145 -25.775294258786786 0 0 0
91 1 0.1227793726380224 1.6880527870196258 1.09953653361634 -23.886524283806843 0 0 0
99 2 -0.1292784913160696 -1.0179094697912756 -0.35455596627123054 -23.589776444700227 0 0 0
87 2 -0.1214634331640013 2.7050559049803926 1.4307584379334708 -26.672512914264374 0 0 0
95 3 0.1973067237891935 1.4450926866099185 -0.6952273786599181 -22.723865335504293 0 0 0
94 1 -0.1729398689285547 1.0965756715572939 0.3159698944734579 -22.66686286411054 0 0 0
86 2 -0.1217645028712033 4.440696362133054 1.7664302979392943 -25.27459052281455 0 0 0
662 2 -0.126031655721532 4.783049659149684 -4.342825792770005 -24.20284002330451 0 1 0
660 2 -0.1212041074635393 0.5573841199331309 -4.048503046034963 -23.517037641360403 1 1 0
97 1 0.114010752438971 -0.4301832993741961 0.3094978593218709 -22.501610058840058 0 0 0
98 2 -0.1270257955999861 -0.9043430637792667 1.631558080042291 -22.502044510396985 0 0 0
656 2 -0.1254418982121275 1.8221342634325697 7.9349448496136255 -25.871870280799214 1 0 0
657 2 -0.1253099711968371 -0.3477922166917562 8.02159535823933 -26.47223573779207 1 0 0
650 2 -0.1131524962154459 0.7991762648971013 6.491977764205437 -28.55565121315376 1 0 0
655 1 0.1209946641603037 0.5862031268494698 7.309336011729217 -25.704352969793227 1 0 0
651 2 -0.1169954739288257 -1.1563578786851412 5.719833825244832 -27.75273737757263 1 0 0
649 1 0.1348064240749111 0.22177429705430685 5.567171347022505 -27.675957263695942 1 0 0
652 1 -0.1922239411303599 0.6978511273320067 5.861443920573338 -26.223795454156075 1 0 0
653 3 0.1857571449026836 0.15600042901871136 5.226519588442594 -25.562261392259302 1 0 0
654 3 0.1925650008245559 1.7191603907957727 5.5492290086970435 -26.145637053285306 1 0 0
647 3 0.2052318536747054 0.5272286093421537 3.4612398262566444 -27.29760301367463 1 0 0
646 1 -0.1799168919771525 0.6083884376876822 4.1224231280111905 -28.141330387595325 1 0 0
648 3 0.1975582569187939 1.6404456109590169 4.126189506740879 -28.424504216932903 1 0 0
663 2 -0.1297182226290931 -1.8535280698546612 6.166775198537067 -24.92062034475739 1 0 0
658 1 -0.05168486159179684 0.14738948139311203 7.3438289478379914 -24.16593417257039 1 0 0
659 3 0.1851173837101984 0.6531995435836544 6.560315801453905 -23.66095054310997 1 0 0
661 1 0.1046085966742696 -1.4034244572665324 7.10384238801093 -23.982932869366245 1 0 0
92 2 -0.1256210028070317 2.279570066765568 2.281308454182267 -23.441707992920854 0 0 0
669 2 -0.1309227212693807 2.944075196112057 6.00124434145587 -23.253453601364598 0 0 0
664 1 -0.1797634034417196 -1.7196012172186466 6.596071682995136 -22.566418082225333 1 0 0
665 3 0.1868215301455165 -1.3366382164273873 5.61096505956716 -22.470359278917236 1 0 0
114 3 0.194900717920882 2.8201819378872806 -0.43770186352622753 -17.011029351768606 -1 0 0
111 2 -0.1228738000652597 2.247239160813014 -2.2610850254847668 -19.71121782931379 -1 0 0
106 1 -0.1784899920028204 4.252488724423981 -0.9446082956915207 -19.41042577022622 -1 0 0
96 3 0.2041199049585959 1.5152290875974623 0.7341106886894968 -21.770201884036396 0 0 0
101 2 -0.1230858161105057 -0.257537543798279 -1.7809026969115807 -21.112742706396965 0 0 0
100 1 -0.05259034263376024 -0.8103512569112106 -0.42505166337736444 -21.14147803535615 0 0 0
102 3 0.1911192364831638 -0.3468486169808529 0.1170763979424505 -20.34497302524052 0 0 0
105 2 -0.1290749538657563 3.871267918605283 -1.292078125823029 -21.745487392036765 -1 0 0
103 1 0.1053661208083357 4.535384170186025 -0.450700467858447 -20.832798788530923 -1 0 0
104 2 -0.1308260483178077 3.981123925040377 0.8372134796942134 -20.98327821906509 -1 0 0
107 3 0.2011374964900408 4.744883717602112 -1.8808395841705847 -19.256649544953994 -1 0 0
108 3 0.1883505031544401 4.6695584072078855 -0.24236855064574403 -18.72142199076532 -1 0 0
110 2 -0.1323225350388605 2.023234157599195 -0.03519621530518524 -19.468524380578366 -1 0 0