LAMMPS data file via write_data, version 2 Aug 2023, timestep = 4096, units = real

576 atoms
3 atom types

-2.5671132949419597 3.4061132949419504 xlo xhi
-2.989059226608868 2.989059226608868 ylo yhi
16.778629745580936 229.91297225441696 zlo zhi
-0.018382855769785725 0.031193706821706583 -0.045261880781263794 xy xz yz

Masses

1 12.0107
2 18.998404
3 1.00794

Atoms # charge

17 3 0.1818366911038757 0.07386524785208692 0.6316935125361995 21.940079414566565 0 0 0
18 3 0.1939693366931514 1.4974803364030516 1.2801125066247003 22.694326188951255 0 0 0
20 2 -0.1285083047910413 0.1907275680124716 -2.2034765778418683 23.040566886272483 0 1 0
4 1 -0.1849138511390487 2.4699866290731096 0.32152649496729957 17.483039989156406 0 0 0
21 2 -0.1296464818174513 -1.592283624729291 2.444361320281274 22.57204976648003 0 0 0
19 1 0.1108125284497698 -0.272980899681845 2.448430779725517 23.059475226319268 0 0 0
7 1 0.09853396896875304 2.2291597601737054 1.5148348489239378 18.4670060008669 0 0 0
8 2 -0.1332777214188436 -2.5024489885626773 2.0870136994859587 18.79216156982874 1 0 0
9 2 -0.133956640910618 1.5142922984043432 2.5159632794686644 17.808648567994368 0 0 0
10 1 -0.1878028215322679 1.499235433813733 1.1155190330384688 19.80075434715307 0 0 0
11 3 0.1825496304046417 0.6902828145805606 0.4294767692136374 19.625113243831482 0 0 0
12 3 0.1799867130957954 2.2164268417215354 0.5665148062998151 20.362763147085076 0 0 0
13 1 0.1032532278195487 0.9658372148765766 2.197818889698281 20.78865498555028 0 0 0
14 2 -0.1322649764048222 1.9533382099866614 -2.808073385567398 20.996219869690265 0 1 0
15 2 -0.1328115501223947 -0.1730725025035058 2.833089416130024 20.253654620953732 0 0 0
16 1 -0.1890941410231039 0.6063030150346345 1.538733544080066 22.155592184031978 0 0 0
5 3 0.1767434511335697 2.464302602555918 -0.6080866388966588 18.011866166031833 0 0 0
6 3 0.1888327316389905 -2.497291134347742 0.35141915993809203 17.14284466598913 1 0 0
37 1 0.09814173446931632 -0.7679524367018942 -0.2675334227366948 29.51099552983942 0 0 0
39 2 -0.1304433975496536 -1.3102181302034557 -1.3739682889541855 28.87068210548759 0 0 0
36 3 0.1850519801903379 0.9920996119961285 0.9684182257326301 29.17820838052369 0 0 0
22 1 -0.1635902148116861 -0.19267031275641777 1.921771281955368 24.531671878538596 0 0 0
35 3 0.194449381125309 1.0058417069713421 -0.5245705760026635 28.327661736273598 0 0 0
24 3 0.1970521114865378 -0.16676380773518673 0.8567543891940006 24.47291856037862 0 0 0
25 1 0.1068860378008672 1.0607153749654024 2.373274651510542 25.314126469196083 0 0 0
26 2 -0.1273177870606481 2.188281328628486 2.3171939407841986 24.47664910192082 0 0 0
27 2 -0.1257001265083674 0.952680432654756 -2.2725934141477775 25.71454194798797 0 1 0
28 1 -0.05626021907521979 1.3047820017318417 1.4593725577491767 26.57737843113088 0 0 0
29 2 -0.1245987847569352 2.18762139950109 0.3396674695413351 26.225615450657898 0 0 0
30 3 0.1914541288830555 1.7661880732289355 2.0439930136206215 27.340298346853142 0 0 0
31 1 0.0854863687363476 -0.03101131482584485 0.9244887957925996 27.279728542946934 0 0 0
32 2 -0.1303758721345485 -0.948163118213684 1.9408194555646192 27.5304291265234 0 0 0
33 2 -0.1275122814173793 -0.6567921031603385 -0.023759760849064726 26.47682675441593 0 0 0
34 1 -0.17140263354462 0.38651147214395687 0.2912239351337864 28.606682066312445 0 0 0
23 3 0.2127200039915336 -1.0691382055956404 2.1941971990493734 25.100088763598517 0 0 0
38 2 -0.1311480154363051 -1.7854689289115582 0.6928565524276906 29.636371153946023 0 0 0
54 3 0.189356228921323 1.1861137405785347 -1.395601014218699 35.684891695598495 0 0 0
53 3 0.1728820421270942 -0.5285386474261324 -1.7137160221051972 35.440068842039594 0 0 0
52 1 -0.1981734537405158 0.20928185358003315 -0.9480504372614105 35.72587466343872 0 0 0
42 3 0.186602643090945 0.48390794163915496 -1.3966092224613897 30.878986849779963 0 0 0
41 3 0.1882437757946827 -1.176213884171053 -1.2632003958642144 31.324151132040857 0 0 0
51 2 -0.1307460587632177 -1.2783881603943341 0.6525818019903364 34.805628940789305 0 0 0
43 1 0.09959233210569707 0.09617049063563021 0.35815765151488765 31.96447979316831 0 0 0
44 2 -0.1291614229472605 1.2628470026868581 0.9976773902506233 31.546478994454798 0 0 0
45 2 -0.1290223550709622 -0.8910410957580508 1.3346358041222866 32.099970733629064 0 0 0
46 1 -0.06543538680912481 0.329129350860506 -0.4726804635204127 33.27149519359433 0 0 0
47 3 0.1731575705450092 -0.3579457374734485 -1.2991063943453613 33.17478449473312 0 0 0
48 2 -0.1273837816927968 1.658426454021031 -1.1003839946239689 33.22266812884935 0 0 0
49 1 0.1036351997079595 0.047244559574122214 0.17490753200705766 34.71114655737182 0 0 0
50 2 -0.1317173055480094 0.9388725998128304 1.240392531688423 34.99218703279245 0 0 0
40 1 -0.1946474924138958 -0.3315549001156408 -0.7126165171246974 30.934300425420965 0 0 0
70 1 -0.1685131267965092 -1.3474218973868417 -2.2519983966178616 42.419528233176095 0 0 0
71 3 0.2059426399639927 -0.4882849215812497 -2.6252372778579374 41.91525897625766 0 0 0
72 3 0.196205561159742 -1.0406304659268362 -1.3009671909254104 42.79744651277591 0 0 0
59 3 0.1755465174806895 -1.4130427119145312 -1.8408665131079012 37.67373912146148 0 0 0
58 1 -0.1795193834865437 -0.42329428812814873 -1.7335010026890125 38.021090004650745 0 0 0
69 2 -0.1196802854849474 2.859440352731145 2.6991241994589226 41.13381029761358 -1 -1 0
61 1 0.09721405026247425 -0.5780108993932187 -1.8499114890549404 39.57141544675592 0 0 0
62 2 -0.1213407628953987 -0.3165195379603465 2.810025698937986 39.96634208155702 0 -1 0
63 2 -0.1192897012030323 0.3346223069642478 -1.0153367651081275 40.17939739965646 0 0 0
64 1 -0.03576647755193933 -2.0173794365133135 -1.4559173326612742 40.01554295457197 0 0 0
65 2 -0.116693006644515 -2.2439925656315602 0.021254604036034852 39.92604166981836 0 0 0
66 3 0.1950210531672509 3.3097799654003186 -1.8396353475194018 39.26494130430122 -1 0 0
67 1 0.1234202338054689 -2.492799856804432 -2.0552809622967056 41.386728235856346 0 0 0
68 2 -0.1218519495412023 2.4883126856708175 -1.245733755538633 41.959940483956245 -1 0 0
57 2 -0.1289232522581052 -0.8397204309568902 0.5520970630943856 37.35231052693574 0 0 0
60 3 0.1871812775175094 0.1334315359570022 -2.564012288705435 37.606683678284455 0 0 0
56 2 -0.1270123800828573 1.3290164764954833 -0.05610369375006119 37.71124078708172 0 0 0
55 1 0.09908403037330393 0.07436994085927573 -0.4967286607249779 37.23439747012273 0 0 0
75 2 -0.1235345640664716 -1.677123238220327 1.517261898753981 43.390000904772194 0 -1 0
88 1 -0.1678103075548444 1.3889489173993503 2.8735087986328 49.33802636573927 0 -1 0
89 3 0.2003139310838927 2.1555664770670155 -2.4024220710400974 49.01093315358002 0 0 0
90 3 0.2074558795582377 0.5692194093458127 -2.515615339461114 49.634661926582844 0 0 0
76 1 -0.1993807852647757 -0.395112568832956 -2.8385223878784482 44.64332205055729 0 0 0
77 3 0.1900846773522865 0.5143956265355487 2.974809092546619 44.1283948162897 0 -1 0
78 3 0.1927754658521577 -0.4014787689447985 -1.8285982364782638 44.98859250850947 0 0 0
79 1 0.1268892677671634 -0.3575420173760371 2.2211741758837436 45.86624653268939 0 -1 0
80 2 -0.1236714341073211 -1.659648248166655 1.932300394821496 46.31732399547427 0 -1 0
81 2 -0.1261361575054272 0.289238455505457 1.010291613315096 45.523217644325996 0 -1 0
82 1 -0.06996573621458524 0.4827241777705473 -2.9436738576478088 46.93516130017832 0 0 0
83 3 0.191664811095691 1.3122607363093253 -2.4674562464902814 46.46693769940863 0 0 0
84 2 -0.1209793434900858 -0.27271739121165073 -1.8075652324959923 47.434019755472335 0 0 0
85 1 0.1316392813024229 0.9453281148305743 2.060447719145407 48.11791869908595 0 -1 0
86 2 -0.1207149586837266 -0.088813283368538 1.2105503867727965 48.48531539029245 0 -1 0
87 2 -0.1205071913130973 1.987680438277537 1.2419364932901482 47.67909515096875 0 -1 0
73 1 0.1113375844966692 -1.6307756857739144 2.873721098569325 43.69003524748494 0 -1 0
74 2 -0.1292161645580492 3.133090952252882 -2.7369458005641287 44.296868437331796 -1 0 0
91 1 0.1131549456758876 1.8832134494492756 2.101164109411716 50.62447873633743 0 -1 0
92 2 -0.1216162174058355 1.074474135662213 0.9919910773937244 50.80243068537023 0 -1 0
93 2 -0.1197709809395854 3.170780338566477 1.6309675804175257 50.3822401592178 0 -1 0
94 1 -0.1619679813457419 1.9056045592486157 2.897724466934722 51.96557062227319 0 -1 0
95 3 0.2163891075702764 2.558095352540767 2.4243675306415673 52.686382224123555 0 -1 0
96 3 0.1989234241906362 2.3294498487762985 -2.1391900631074834 51.69904790908844 0 0 0
97 1 0.09815344396503414 0.628733860562896 -2.742712432761997 52.747399679416645 0 0 0
98 2 -0.124494528819415 -0.3712798197484455 -2.3794192610292444 51.8251741859062 0 0 0
99 2 -0.1227345168936435 0.16560769020245392 2.1183392652856456 53.41079569942505 0 -1 0
100 1 -0.03379489938629241 0.8179769818784433 -1.613337039887924 53.81120756056016 0 0 0
101 2 -0.1222403166918088 1.05699978413936 -0.3085087009896088 53.114189333006735 0 0 0
102 3 0.2127561915290352 -0.12070209678776544 -1.5376567985865557 54.322507061336005 0 0 0
103 1 0.09327080472228955 1.8295701415228631 -1.8859381389975067 54.98934899943601 0 0 0
104 2 -0.125947122120085 1.9474252011942417 2.7131766650861646 55.19282213084446 0 -1 0
105 2 -0.1251767857004299 3.108602126975554 -1.4150125015612705 54.62456362321946 0 0 0
106 1 -0.1765888355287739 1.3990632077065488 -1.2720280905464598 56.35260893972239 0 0 0
108 3 0.2024670358540575 1.7123820208276381 -0.24540543220701183 56.37015829031645 0 0 0
111 2 -0.1277942629409949 -0.6160165212523221 -2.6133332013730777 56.5226808331212 0 0 0
110 2 -0.1269595816652984 -0.8543084336553612 -0.3850904070969614 56.28137504469818 0 0 0
107 3 0.1922534224257659 1.985927579512083 -1.7570147110890224 57.10985568253331 0 0 0
123 2 -0.1272870595980376 1.016748545448897 -0.8658855811170563 60.88576666207364 0 0 0
109 1 0.07749922307031722 -0.07943174361518857 -1.3795003316062964 56.88337153439762 0 0 0
112 1 -0.1696068337757257 -0.21711540973203247 -1.2395487590748515 58.43417938844645 0 0 0
113 3 0.1918697802188927 0.7004610937296958 -1.6286850819837924 58.80938637588516 0 0 0
114 3 0.199768464971822 -0.28148928991159394 -0.17972282058254008 58.63384149037568 0 0 0
115 1 0.09516872619851804 -1.3069130042824975 -1.9525669679416227 59.269462375707306 0 0 0
116 2 -0.1317105099872536 -2.5411900616998673 -1.380033539557248 58.96959345066487 0 0 0
117 2 -0.1262622540457121 -1.3836612521687224 2.663850125653247 58.874743863815375 0 -1 0
118 1 -0.03523851670297387 -1.1624267919728022 -1.890387274930906 60.84683672601031 0 0 0
119 3 0.2045009981006087 -1.676096000052386 -1.025529611998856 61.21262502562388 0 0 0
120 2 -0.1218188794598342 -2.0641353664579936 -2.8934711589896294 61.49894339931142 0 0 0
121 1 0.09668095702138954 0.25182804884058463 -1.87099736869859 61.498736065924 0 0 0
122 2 -0.1235526366486081 0.8691028917232888 2.884495509079758 61.2699594817779 0 -1 0
124 1 -0.1725695565927443 0.21747969509059972 -1.63525314756097 63.03339659203186 0 0 0
128 2 -0.1257804566722281 0.9196499557964146 0.6758997301096237 63.104833760301865 0 0 0
129 2 -0.1270927559154887 -1.2971315018461995 0.26539507860092426 62.87971182084811 0 0 0
144 3 0.1873695540158781 0.9119691417230169 1.3827217758119232 69.76544938387954 0 0 0
141 2 -0.1256217968582169 -1.3185763869487017 2.963594292681898 67.92646165422835 0 0 0
142 1 -0.1845526183694937 -0.04047660200984504 1.8427322967152149 69.65153553056018 0 0 0
130 1 -0.1812779892552464 -0.31745872678192777 -0.16618434551801187 65.02951109933738 0 0 0
131 3 0.1985431683469122 -1.3526136141680627 -0.46464062602161693 65.16177476897349 0 0 0
132 3 0.1823037519717743 0.3560356744113551 -0.8913410857848763 65.47710604381905 0 0 0
133 1 0.09981346901397697 -0.1192581635319665 1.1782436418928608 65.75875089724605 0 0 0
134 2 -0.1314927996114714 1.1795528726114308 1.6373769528330149 65.56006685427712 0 0 0
135 2 -0.1318256345151156 -1.005989381532418 2.157573819036484 65.27664456865887 0 0 0
136 1 -0.06318001897654706 -0.4008748273421818 0.853331659785113 67.2740020154105 0 0 0
137 2 -0.1241768701028762 -1.841581492796938 0.37432639063325945 67.43023121770241 0 0 0
138 3 0.1866693924001688 0.34700433760429084 0.12631092922517695 67.62444714949285 0 0 0
139 1 0.1186717900664788 -0.21076103130642876 2.1354184609359903 68.12207853341198 0 0 0
140 2 -0.1279808276761201 0.903736042879451 2.8385743487563087 67.6835063718226 0 0 0
143 3 0.188148417456178 -0.7133862538998661 1.0945765187049448 70.00493235926703 0 0 0
127 1 0.09738132901878901 -0.11652350529188249 -0.17996163384914388 63.485552201442 0 0 0
126 3 0.1995927973879061 1.183106034684978 -1.877134250551168 63.42379903139713 0 0 0
125 3 0.1969612346630107 -0.4806423817701386 -2.3172162846128055 63.49270011040067 0 0 0
145 1 0.1084300364829885 -0.13166331394967123 -2.9336013874820988 70.62143273486845 0 1 0
159 2 -0.1287260489205647 -1.7542943157575537 -1.7304873121635105 76.03930157318915 0 1 0
147 2 -0.1283478668431896 -1.325501826177991 -2.232337903667009 70.37918937532828 0 1 0
148 1 -0.1998677737424222 -0.07278752625352425 2.5285770602637214 72.10941522663383 0 0 0
149 3 0.1776911965516204 -0.4116266777867028 1.5135985005401515 72.1304814186283 0 0 0
150 3 0.1812017444572732 0.9716364348647346 2.492919651960075 72.40668798608061 0 0 0
151 1 0.0966118971220179 -0.7871244307691097 -2.5791084486814135 73.15930507488153 0 1 0
152 2 -0.1346059981597058 -0.49235780748671054 -1.2398687523729472 72.90104577722101 0 1 0
153 2 -0.1322921187458038 -2.178084110295895 -2.708385698726044 73.04008108509561 0 1 0
154 1 -0.1790025663492779 -0.3222507120513258 -2.961123102939494 74.62000686682245 0 1 0
155 3 0.1964032815703332 -0.895574603669488 2.2063017074848172 75.02293081926118 0 0 0
156 3 0.1807897271971759 0.6602129793436484 2.6857712808830643 74.5736261547824 0 0 0
157 1 0.08866399250789445 -0.4183195583803361 -1.8633469569372896 75.70954854492281 0 1 0
158 2 -0.1326656211594535 -0.0021478034094903897 -0.6688927105762392 75.1515259238914 0 1 0
146 2 -0.1289314972964592 0.916781766460848 -2.0622808864461577 70.38458988772177 0 1 0
161 3 0.1980868439643066 1.2807500854914537 -1.4496580968910961 76.72166055100439 0 1 0
163 1 0.08295313711548485 0.8094067133273479 2.6515579746120226 77.65410727293605 0 0 0
164 2 -0.1308238912304382 -0.09802883174933097 1.6322311901101143 77.28944257937653 0 0 0
162 3 0.1933969326819461 -0.10736316017983549 -1.3969884721653614 77.82384601874443 0 1 0
166 1 -0.1777137341810544 0.8546463959788704 2.7524615787767663 79.22871249762161 0 0 0
167 3 0.1891394863010399 1.2166202669092043 -2.252749587694974 79.49351344919171 0 1 0
168 3 0.1954178434649791 -0.17943633540162507 2.6856846332180817 79.49955842493853 0 0 0
169 1 0.1147330111458782 1.7504760230349294 1.905312146982455 80.13235378857141 0 0 0
170 2 -0.1285137757110905 1.7319336941049013 0.5816648635420911 79.68371995394364 0 0 0
171 2 -0.1276725753657063 3.0781079903277435 2.3712038558814195 79.99108518466042 0 0 0
172 1 -0.06442159140207319 1.304742660105299 1.9661669438687621 81.69759486959805 0 0 0
173 2 -0.1313029685187194 2.422172183864176 2.0042777703491375 82.61750394585331 0 0 0
174 3 0.18158001305298 0.8344359460552382 2.904432339622608 81.91966787255933 0 0 0
175 1 0.1088860401626523 0.34899946461066955 0.7928164812145773 82.05767501254374 0 0 0
176 2 -0.1290275895053878 -0.6716615145438987 0.6612942035664879 81.11353642789513 0 0 0
177 2 -0.1306255198492199 1.0427724616039997 -0.44234720359292723 82.13998659647604 0 0 0
160 1 -0.1795753409803661 0.38971035150930033 -1.9765703693365364 77.04507840308997 0 1 0
165 2 -0.1283757821636532 2.0736350836888766 2.325136098615813 77.16484755217175 0 0 0
182 2 -0.1316356654357412 -2.0316495201721536 -0.5072475440530986 83.30717554364401 0 0 0
180 3 0.1863536711855574 -0.9199629519547978 2.0191858409099384 83.16352932339626 0 0 0
181 1 0.09754585479932942 -1.0976227897494035 0.08630287853781615 84.15833021050784 0 0 0
178 1 -0.1726377228004781 -0.2877835836224918 1.1797579940480158 83.40876379608184 0 0 0
183 2 -0.1340901143755073 -0.22839729114332696 -0.9070035011426203 84.58672318010335 0 0 0
184 1 -0.1809518821382355 -1.8534903510654022 0.706646826745855 85.39116452667287 0 0 0
185 3 0.1815986697237296 -2.4286125173308992 1.5334375549206696 85.03459692954482 0 0 0
186 3 0.1968981102546232 -2.5207222783807985 -0.031141025580835535 85.7416215133546 0 0 0
187 1 0.07287987561822543 -1.0191591753555207 1.1219832693604417 86.59524517660643 0 0 0
188 2 -0.1338478678253576 -0.37015464008986587 -0.02440614095489968 87.09754847793073 0 0 0
189 2 -0.1364540948314828 -0.049975148655178714 2.01551702847689 86.15398401492072 0 0 0
190 1 -0.06177255349884263 -1.961706205150499 1.7885476041751431 87.704715632925 0 0 0
191 3 0.1900577065383622 -2.2598743262630476 2.7867788778507174 87.38742340251599 0 0 0
192 2 -0.1296263045654276 2.8117074741993084 0.9922310640073557 87.87102576244092 -1 0 0
198 3 0.2050418883905787 -0.516035243252837 -0.07750641701692151 89.14138957415341 0 0 0
194 2 -0.130550288934212 0.09727267508323001 2.4576041962718653 88.83682263795839 0 0 0
193 1 0.0861704627792504 -1.1795850230290261 1.923705765034569 89.07367072663376 0 0 0
179 3 0.1909196987675167 0.45524611767732504 1.5167490083698638 84.10900738458244 0 0 0
196 1 -0.1638500429447403 -0.9909003062867856 0.5943822967190187 89.81564663351386 0 0 0
195 2 -0.1284416169041525 -1.8598810395143999 2.8284738300359917 89.90785039592126 0 0 0
197 3 0.2018650382966878 -1.9532373150832718 0.1600927113708006 90.01084159431659 0 0 0
199 1 0.1046934481992149 -0.1156381253830534 0.5484334466148235 91.11685173470596 0 0 0
200 2 -0.1272275353586177 -0.40240058624915553 -0.6566429793679194 91.71761585208532 0 0 0
214 1 -0.1769375949086917 -0.2021796688193671 1.5680648904853127 96.63600616046426 0 0 0
202 1 -0.1613080409815689 -0.3497705351945788 1.6908488013954823 92.15414461840896 0 0 0
203 3 0.2066754180607932 0.0437536339362925 2.606415500800665 91.78293084025191 0 0 0
204 3 0.1947313172591478 -1.398962427398053 1.8088499281134869 92.25057689328827 0 0 0
205 1 0.09118897539509924 0.2852207722468174 1.4583169117100043 93.53491872128262 0 0 0
206 2 -0.1315526239352759 -0.4270883264703724 0.4780058507541951 94.20790413880323 0 0 0
207 2 -0.1256159396599575 1.6021588000102405 0.9950511333692891 93.36209269501771 0 0 0
208 1 -0.05534820908314235 0.27615987679619813 2.8006692489256784 94.35425155786709 0 0 0
209 2 -0.1265671002674616 1.2479260259123044 -2.256550657285774 93.71721150178183 0 1 0
210 3 0.1853075194964462 -0.7121785555713152 -2.825046445640059 94.27888372527988 0 1 0
211 1 0.09561576503197639 0.5294753572073772 2.736204471342524 95.94583457679633 0 0 0
201 2 -0.1261528055482981 1.2463857416441186 0.5340133554215978 90.7770707148322 0 0 0
212 2 -0.1315475394545714 1.9398723319124498 2.6885001114054594 96.18274228621985 0 0 0
216 3 0.1910661533590013 0.029389717888403055 0.6307221790021997 96.16225317709092 0 0 0
215 3 0.1820704936794574 -1.2993748589010183 1.6880986007381367 96.49295136583277 0 0 0
213 2 -0.1367558855811037 0.08822732847186954 -2.0357911564903177 96.51435392595678 0 1 0
217 1 0.09316252186457119 0.16101514436942388 1.3159939728686432 98.13450148653752 0 0 0
218 2 -0.1334878353961371 1.5171158662730102 1.0055820396811193 98.20420385627554 0 0 0
219 2 -0.1313753494734969 -0.001990875271021153 2.50364014846408 98.84350244605696 0 0 0
220 1 -0.1852225202150841 -0.6692816225628095 0.1475492098671718 98.80518199655009 0 0 0
221 3 0.189396591935386 -1.6669162093612493 0.19540796778727465 98.43579709969501 0 0 0
222 3 0.1868895721775728 -0.30617585695397187 -0.782996721341803 98.41524765145911 0 0 0
223 1 0.1123040568217741 -0.7509097060347683 0.024112629043040013 100.34221975024315 0 0 0
224 2 -0.1236661169438984 -1.3618921379958384 1.1864962029561745 100.84354237132024 0 0 0
225 2 -0.1286244368163248 -1.6034937126722648 -1.0714156171533489 100.65792010386411 0 0 0
226 1 -0.03848320990960472 0.6395660608399458 -0.1757319225791969 101.0346032203241 0 0 0
227 3 0.1885233280536765 1.2946651750493965 -0.6173347282941819 100.32570660901794 0 0 0
228 2 -0.1229391459124638 1.3200193980777204 1.1022005937394157 101.25483349577175 0 0 0
229 1 0.09629272439078339 0.6456836620883002 -1.0310675343474878 102.40312796134987 0 0 0
233 3 0.2097064900408352 2.589131975752185 -1.747281755687952 102.1491918547438 0 0 0
231 2 -0.1235551418894087 0.14936188963307995 -2.3208565791551954 102.23483939091213 0 0 0
234 3 0.2113470306144731 2.430588771838517 -0.1045545992220065 102.82148243848138 0 0 0
232 1 -0.1634532897715755 2.084956433737073 -1.1155462276500065 102.88437993642813 0 0 0
235 1 0.1135537979242802 2.43036458766181 -1.601891230505778 104.33486529227338 0 0 0
236 2 -0.1217093781985777 2.9861357871312952 -2.884039384556534 104.20645671609608 0 0 0
237 2 -0.1219165723539511 -2.553041656638259 -0.7518032451844507 104.80857746261032 1 0 0
238 1 -0.1685606946456536 1.3409912667158652 -1.6555450778325733 105.44246714709254 0 0 0
239 3 0.2082429264023272 1.0725655039639244 -0.6546891061334836 105.7798347351802 0 0 0
240 3 0.2071302206929917 0.49668064992014527 -2.1541774524270694 105.04376197192568 0 0 0
241 1 0.1197990715093476 1.7152370222289912 -2.5596759575849823 106.6394192688251 0 0 0
242 2 -0.1201991594213469 1.182763664088459 2.1329838500806275 106.41521499023114 0 -1 0
243 2 -0.1161618184704309 3.107339098389228 -2.698113625937658 106.71590928292869 0 0 0
244 1 -0.03659867219411202 1.1337264942483491 -1.9607372900198592 107.96452678549977 0 0 0
245 2 -0.1127160446017321 1.7206361830479278 -0.6530357267009697 108.22961669721226 0 0 0
246 3 0.2109831330418462 0.0924314613473145 -1.806950944574592 107.82960187426823 0 0 0
247 1 0.1454710857514333 1.3354830077825692 -3.0000514257368915 109.18373085909863 0 0 0
248 2 -0.1132129896648053 0.49822081227976955 1.8367337584942165 109.00242028346571 0 -1 0
249 2 -0.1153813325250321 2.633968235249437 2.529503102715177 109.18694363365722 0 -1 0
230 2 -0.1244361711122324 -0.10728726088255858 -0.41055801560951855 103.3836531969352 0 0 0
253 1 0.1163976896896304 -0.38478111491273426 -2.0177906959908887 110.96531787154319 0 0 0
251 3 0.1888040086137406 1.4539689326909686 2.7996380270906727 111.28818724279694 0 -1 0
255 2 -0.1248385387237398 -1.2888371665874114 2.9129693018736065 110.79567190567496 0 -1 0
256 1 -0.1833410946988742 -0.34576779072459685 -1.5790655718183055 112.46305187336174 0 0 0
257 3 0.1646101691970766 -0.06914109765147725 -2.4654825004134526 113.00677884039513 0 0 0
250 1 -0.1743895408303824 1.0793042841338303 -2.4401321038411607 110.57832314111914 0 0 0
259 1 0.06503086646431874 -1.580183074029397 -0.9060703563938488 113.05869218605318 0 0 0
260 2 -0.1394829157213268 -1.6640925325746716 0.41647536083553316 112.60492051889287 0 0 0
261 2 -0.1438614215510661 3.227575366255488 -1.5746918702808688 112.66496686409482 -1 0 0
262 1 -0.09276006994947732 -1.4170171633308715 -0.9986552810722427 114.64853608841597 0 0 0
263 3 0.1794587176374285 -2.1688141935400096 -1.7367068417599285 114.88009606560377 0 0 0
264 2 -0.1428266738890425 -0.1048835862257218 -1.4936694663344434 114.9461941193585 0 0 0
265 1 0.09256081804366331 -1.7378085320261338 0.23591848506290347 115.60570343825376 0 0 0
266 2 -0.1385867537985424 3.0131252181713943 0.8225842948759436 115.26874916045534 -1 0 0
270 3 0.1682302078289183 -0.9226059246537348 2.215835291165 115.06789390757078 0 0 0
268 1 -0.1850940610415922 -0.6292302515365102 1.2866681712828747 115.54566946398216 0 0 0
269 3 0.1866624695544035 0.11735578720125073 0.8272965851649694 114.93793124902143 0 0 0
254 2 -0.1182829019421367 -0.8122067442427696 -0.9700443102949508 110.17396400172376 0 0 0
252 3 0.2025012459735236 1.648730393909264 -1.532127353945592 110.71173674950944 0 0 0
258 3 0.1735003724087087 0.4771250393307822 -0.9110653159970461 112.61797284283975 0 0 0
288 3 0.1919489010835589 0.14529918239935702 1.7984449041458213 122.9166667800427 0 0 0
287 3 0.1961034472631711 -0.4428195166465505 0.20215069527791352 122.75694110732911 0 0 0
286 1 -0.1722137160049414 -0.7363311179870544 1.230863624324904 122.72304069311286 0 0 0
274 1 -0.139254161266828 -1.0236457489387736 2.1331294005300174 117.97199731700277 0 0 0
275 3 0.2038294768076121 -1.772638820197991 2.5960922069614325 117.38021207519193 0 0 0
276 3 0.2244162238432406 -1.5154652315057737 1.3077498709884647 118.41881631536151 0 0 0
277 1 0.127421599737857 -0.7005169717226574 -2.902465333340794 119.16581716301508 0 1 0
278 2 -0.1130663359912961 0.25604058442683986 -1.9319566154927694 118.80612023695002 0 1 0
279 2 -0.1146184280559736 -1.8769447375647805 -2.208178623464215 119.48891303961776 0 1 0
280 1 -0.04158782066386781 -0.23715602273095948 2.303009875855963 120.441700179875 0 0 0
281 2 -0.1141320694309563 1.029035895933347 1.564603057505047 120.25506541982091 0 0 0
282 3 0.2031530137944712 0.1433721601015967 -2.8483285299077155 120.99423904913155 0 1 0
283 1 0.1151355196545738 -1.294224568622727 1.5275695950722836 121.30565655506453 0 0 0
284 2 -0.121940315140158 -2.478752633880811 2.302587217188509 121.37883601039596 0 0 0
285 2 -0.1173423860338984 -1.635335697200325 0.3105882443747938 120.7039016570759 0 0 0
272 2 -0.1192396051103648 0.7087261095196085 0.5165012794929118 117.39743942966271 0 0 0
271 1 0.1244778286653723 0.0170430496104661 1.6374990635067785 116.92417592488982 0 0 0
267 2 -0.1243894972456474 -1.8570699737885592 -0.22875360688208302 116.92699334674856 0 0 0
273 2 -0.1260443321781362 0.934728014250076 2.6359888227986197 116.704862877404 0 0 0
304 1 -0.191597843572433 0.1714845472870179 1.1545519012638943 129.73786706419412 0 0 0
305 3 0.1739603237694695 1.2171431087514093 1.043587015277124 129.56563266358924 0 0 0
290 2 -0.1310443031379766 -2.367763022879619 2.5851513906116637 123.87445545615469 0 0 0
292 1 -0.1762856490847643 -1.1511121633484562 1.1163326522334707 125.33650735187118 0 0 0
293 3 0.1939026958218312 -1.9963953227090383 1.0669292040212044 125.98869533013166 0 0 0
294 3 0.18451820209882 -0.6335670737560535 0.18342053145386528 125.351311971212 0 0 0
295 1 0.08125380259039799 -0.20157662110890717 2.214487840724474 125.86596812124333 0 0 0
296 2 -0.1342587227927501 0.8066702100964656 2.4550507621487982 124.93830764290996 0 0 0
297 2 -0.1338499940650799 -0.8961617716391983 -2.563422669540036 126.00298873189618 0 1 0
298 1 -0.1913088505932884 0.43151300588081654 1.772989479318194 127.2456486150873 0 0 0
299 3 0.1754640748237225 1.1506887413737474 0.9384177376775695 127.14395166957013 0 0 0
300 3 0.1863183519091674 0.9759846984064984 2.632091838049006 127.58483480607907 0 0 0
301 1 0.07773408285028688 -0.5709314082818868 1.425197170238059 128.36855971319207 0 0 0
302 2 -0.1338996230621339 -1.4432759089393965 2.5043378210442153 128.54781382965294 0 0 0
303 2 -0.1354064827585033 -1.3579424177002524 0.31744079071852394 127.9858250780216 0 0 0
291 2 -0.1301814103584989 3.276298418975144 0.3809937187875385 123.72294442570515 -1 0 0
289 1 0.08957283584785308 -1.7360525473464143 1.3441687900601407 123.9112982917365 0 0 0
307 1 0.09284025845116353 -0.2236077208939844 -0.03748232987530331 130.6414417456229 0 0 0
308 2 -0.1301794687043623 -1.6130486868411045 -0.048176316641982186 130.75434359660346 0 0 0
320 2 -0.124022467871305 -1.8609556989393177 -0.7540977103861066 135.71490121984223 0 0 0
310 1 -0.183542146424487 0.439055297004042 -0.012081445864614349 132.0685326567052 0 0 0
311 3 0.1967321466481237 1.3864690822736034 -0.4878859347282489 132.01543954057075 0 0 0
312 3 0.187511791391294 0.7136606256672202 0.9904337966739836 132.24448529450925 0 0 0
313 1 0.1230992957488871 -0.4183859978113844 -0.5379499461809032 133.25287100376087 0 0 0
314 2 -0.1218690142392487 -1.319352601169671 0.47522493151922207 133.56955856619908 0 0 0
315 2 -0.1237208312409294 -1.1711804987499281 -1.6316164039632495 132.79842233776324 0 0 0
316 1 -0.05673140752571652 0.297527971803206 -0.9497206997681547 134.5877519443504 0 0 0
317 2 -0.1200243982973948 1.4109714892830203 -1.928244037462413 134.33939199939073 0 0 0
318 3 0.192796183864873 0.7293722779727982 -0.03841412905278618 134.9677849919239 0 0 0
319 1 0.1224938332637915 -0.7001856640765798 -1.5232919293228946 135.6540000977574 0 0 0
306 3 0.1886744810999244 0.06976543717272055 2.0516460445658486 130.30830379449506 0 0 0
321 2 -0.120210271627592 -1.0965844528457038 -2.818333584910492 135.30681328791223 0 0 0
309 2 -0.1341264518441499 0.16287806408886052 -1.2144506878189416 130.01156121649672 0 0 0
325 1 0.1019458016258946 -0.12701895472323566 -2.6918963354475154 138.07760383127285 0 0 0
326 2 -0.1252691352560256 -1.461596031993417 -2.9793863735929165 138.37773311318776 0 0 0
327 2 -0.1260657688001762 0.4022509706902708 2.148161983050639 137.48585105867264 0 -1 0
328 1 -0.1769684863721115 0.6353875366870643 -2.3813272113616373 139.4265006160775 0 0 0
329 3 0.2090479531748955 0.49760723798900885 2.716696161255652 139.99411081053168 0 -1 0
330 3 0.1902179844815015 1.6742881284584357 -2.332785560320643 139.20612331565954 0 0 0
331 1 0.08584353080930821 0.2517326537769726 -1.2353045685401847 140.37490772891866 0 0 0
332 2 -0.1292742478639463 -0.6749973976386636 -0.41809075942653307 139.73243995632953 0 0 0
333 2 -0.1306618801483454 -0.4026619270231202 -1.7787852102808537 141.49552741013056 0 0 0
334 1 -0.06238893279702061 1.4995184138295103 -0.37393953485701337 140.83024577020896 0 0 0
335 3 0.1826927857302435 2.2425190308054184 -1.0487189931135237 141.19117702990192 0 0 0
336 2 -0.1281882752057862 2.1261943394531793 0.25572804369969093 139.6892420032903 0 0 0
337 1 0.1046258594302606 1.2885264371854595 0.695857876769352 142.0051962064134 0 0 0
338 2 -0.1304763449413379 2.2628349948742006 1.6951672228585934 141.9365303800947 0 0 0
339 2 -0.1311906792299286 0.04727257217322611 1.3275088241894268 141.9157774976966 0 0 0
322 1 -0.1694444460014132 -0.027956253524275443 -1.527717646615022 137.0570348535238 0 0 0