LAMMPS data file via write_data, version 2 Aug 2023, timestep = 40000, units = real

1152 atoms
3 atom types

-0.7498214026100887 3.7008214026100883 xlo xhi
-2.1430602683867432 6.0120602683867395 ylo yhi
-7.331731389940842 254.02333339108083 zlo zhi

Masses

1 12.0107
2 18.998404
3 1.00794

Atoms # charge

1 1 0.07944174990067356 -0.0692357364230185 0.010156587581892751 -6.520976547664667 0 0 0
2 2 -0.1493805091415493 3.6135896881429477 1.1511336600343216 -6.481722365054102 -1 0 0
3 2 -0.1512109207102628 3.4751301880664456 -1.0449292949226845 -6.573505550983281 -1 0 0
4 1 -0.1519536727572576 0.6165122540313555 -0.1183387991837348 -5.172096789297624 0 0 0
5 3 0.1790527756661368 1.2668401481695284 -1.0332165741360075 -5.2216524039989585 0 0 0
6 3 0.1896392691460417 1.3848173517919515 0.6157709388765817 -5.169541383510222 0 0 0
7 1 0.08333010506783224 -0.18145735523751172 -0.05237302413558709 -3.7804832415076497 0 0 0
8 2 -0.1470230366921103 3.4930612955053983 1.121276636577424 -3.762984650899331 -1 0 0
9 2 -0.1538011138417364 3.415352537644828 -1.1262006779513931 -3.821131982139395 -1 0 0
10 1 -0.1470907325092537 0.5936477898827206 -0.15071625192646554 -2.45757689062357 0 0 0
11 3 0.1784494913256316 1.0066276342506884 -1.160728198854863 -2.51496908657188 0 0 0
12 3 0.19353388124875 1.508121542203729 0.49819587765762074 -2.433923419073669 0 0 0
13 1 0.0807966367448989 -0.19297804861385204 -0.12821973531400133 -1.1007986349142662 0 0 0
14 2 -0.1480995015822114 3.494479946114794 1.0167629232513993 -1.098708200315441 -1 0 0
15 2 -0.154304029648866 3.3324239652216714 -1.141670899617946 -1.0607062503528901 -1 0 0
16 1 -0.153317272537239 0.6225536689628974 -0.22436219679010194 0.22716483612633454 0 0 0
17 3 0.183657803797948 1.3035975796875054 -1.0948392313950555 0.1255982449593942 0 0 0
18 3 0.1888526192498933 1.2482823221556871 0.6763484990142663 0.28211273216512556 0 0 0
577 1 0.08101017376998479 2.0879088832217456 3.9496493961138146 -6.722495346285463 0 0 0
578 2 -0.1505713149869068 1.259966384236074 5.041746546478049 -6.735701045445728 0 0 0
579 2 -0.1491460076413165 1.3159437240589855 2.797859140636546 -6.7561854588204096 0 0 0
580 1 -0.1604415397951502 2.834812022227933 3.962882003677457 -5.375959286326247 0 0 0
581 3 0.194659503825114 3.4434044241582034 3.101636972631474 -5.290242884697539 0 0 0
582 3 0.182857471167306 3.379119371299779 4.882265820724779 -5.30764270683916 0 0 0
583 1 0.07603705085689212 2.057661686661794 3.9568989002970056 -4.000433961627248 0 0 0
584 2 -0.1531429436401655 1.1387912632509833 5.0305911649567 -4.00982870987246 0 0 0
585 2 -0.1465878906601781 1.2802174395922084 2.840093043389003 -3.9631714216404634 0 0 0
586 1 -0.1530085546750818 2.846363494669399 4.050167669072375 -2.627945782502577 0 0 0
587 3 0.1943483608642899 3.621574573180799 3.3460794901312303 -2.6776576869325552 0 0 0
588 3 0.1792652839739027 3.402743688287194 4.9471438796465375 -2.604827837280139 0 0 0
589 1 0.08031407479794975 2.122120498084991 3.9900402929384855 -1.2303783619886364 0 0 0
590 2 -0.1529910434136562 1.1712219172164704 5.0156660774761015 -1.1881717294447753 0 0 0
591 2 -0.1464979992242769 1.383224189398153 2.783987198431481 -1.2239633086474413 0 0 0
592 1 -0.1511353960989397 2.8738791785117965 3.9852867951317448 0.09531956113546691 0 0 0
593 3 0.1918961758693915 3.5233969824671 3.1036343716468755 0.051490222062449575 0 0 0
594 3 0.1849849879690883 3.4350963427277486 4.942289803834815 0.09335045999613278 0 0 0
19 1 0.07807174464276939 -0.10748402915683875 -0.23787745745055933 1.587888170097953 0 0 0
20 2 -0.1507266779509702 3.4414837139861274 0.8816783423577839 1.5736222680101104 -1 0 0
21 2 -0.151375955415478 3.5836383873526096 -1.3916927744385412 1.6168074822364886 -1 0 0
22 1 -0.1409861366264696 0.7123929723154929 -0.1600252095057928 2.9779847576603924 0 0 0
23 3 0.2019615440442339 1.46889142125758 -0.9677281141443048 2.8984670594185644 0 0 0
24 3 0.1924793466555264 1.2945050112071597 0.7720089694710865 2.9907388082977207 0 0 0
25 1 0.1277797943996549 -0.015470656658314819 -0.2507075960654894 4.293238648064365 0 0 0
26 2 -0.1460461371432724 3.42161534864726 0.6721072174173766 4.312174375739607 -1 0 0
27 2 -0.1418431037602024 -0.6209518944683087 -1.463807486944181 4.293840886970996 0 0 0
28 1 0.002162946640052276 0.847190745268859 -0.1362940644805546 5.672800026424376 0 0 0
29 2 -0.1399648954945819 1.8142657382067768 -1.180060151303713 5.750734316016086 0 0 0
30 3 0.2046454626339443 1.3109333979475575 0.8452274796957453 5.625847977051995 0 0 0
31 1 0.1262244020127284 -0.015521137599183499 -0.24358814547786345 7.010334785744597 0 0 0
32 2 -0.1481098303891923 3.4243243381514437 0.6655690054836656 6.9341336377713 -1 0 0
33 2 -0.1425346080934521 -0.6379475022884914 -1.5265474889739643 7.054640139902059 0 0 0
34 1 -0.1508452477983764 0.806890329348708 -0.06950832251824668 8.264261076755911 0 0 0
35 3 0.2038490396889567 1.5963421957633237 -0.7414517514216343 8.377152849615037 0 0 0
36 3 0.1895315412469734 1.207835579507787 0.9316826820929252 8.184026957053446 0 0 0
595 1 0.07913523287567117 2.1722896911561125 3.9851275364939163 1.4921182714598569 0 0 0
596 2 -0.1513100744430517 1.5218823518413296 5.204369151768652 1.562288799113368 0 0 0
597 2 -0.1504273218149336 1.2113084078172627 3.0041459737775478 1.500226167567405 0 0 0
598 1 -0.1414291557313423 2.9944004402209283 3.8569743788952326 2.8686224489375096 0 0 0
599 3 0.198663655247522 3.630146282990006 2.9547794522058792 2.762471146805625 0 0 0
600 3 0.201174840007294 3.571821711056328 4.739757932458342 2.967266928122392 0 0 0
601 1 0.1223724067246691 2.176753514238705 3.7449475178029408 4.1522083132073515 0 0 0
602 2 -0.1431914289230129 1.187824458736961 4.67799326187826 4.123675803482325 0 0 0
603 2 -0.1468201116570827 1.5349711574391396 2.5250632384374017 4.030068809275209 0 0 0
604 1 -0.003928457115788278 2.993976326657243 3.8402538299414983 5.539299076758539 0 0 0
605 2 -0.144613534478869 -0.3945101358304423 2.8361997280225184 5.545312044946785 1 0 0
606 3 0.2126815430096343 3.50084834442058 4.792909081219022 5.606516600830519 0 0 0
607 1 0.1151953662356831 2.216273122939478 3.842640698893949 6.9043066906674575 0 0 0
608 2 -0.1428832974997747 1.263894295019158 4.811960410259578 6.893272687896072 0 0 0
609 2 -0.1488212311918835 1.5760713458915934 2.6120061751612766 7.066736836888378 0 0 0
610 1 -0.1418593357730789 3.0229340809675334 3.962862760741854 8.232403571287517 0 0 0
611 3 0.1940610713821605 3.6244327118698716 3.0446568406437153 8.29477426047313 0 0 0
612 3 0.2024503324856345 3.664898569184554 4.822341022632736 8.180707623301608 0 0 0
37 1 0.07080190541648801 -0.013055488908826351 -0.0916551654803337 9.69887200479096 0 0 0
38 2 -0.1523524632296704 3.6148287306734397 0.9844616338824195 9.650194984810675 -1 0 0
39 2 -0.1489492695367419 3.627023417593089 -1.2627054650374445 9.752465032272344 -1 0 0
40 1 -0.1484238678531456 0.8025577932620078 -0.00782160091343842 11.038848787053915 0 0 0
41 3 0.1983710795906675 1.4496222174013225 -0.8689369720809943 10.998079075547889 0 0 0
42 3 0.1962631563687602 1.3988751951796004 0.8358622717489976 10.94548045892573 0 0 0
43 1 0.126992329716466 0.053648599697754595 0.009580806706833922 12.398357162556387 0 0 0
44 2 -0.1435114578549055 -0.6759003580073716 1.1811223725729199 12.342620749366532 0 0 0
45 2 -0.1435651611855698 3.516616287427946 -0.9666643009374389 12.329218720688 -1 0 0
46 1 -0.001175893090627088 0.8088961646694013 -0.05267572930218867 13.851489692424565 0 0 0
47 3 0.2092948032529493 1.2751788155097352 -0.9792581354656922 13.841659722903998 0 0 0
48 2 -0.139570120598241 1.8208280538099655 1.046572767244462 13.85425417623668 0 0 0
49 1 0.1217194952169649 -0.004633906408468724 0.04771786872441375 15.181656814949005 0 0 0
50 2 -0.1422362017978708 -0.6278693820531382 1.2841987778482884 15.257871277640643 0 0 0
51 2 -0.1448421508854043 3.4349032982530106 -0.8891565094398373 15.132852730077083 -1 0 0
52 1 -0.1524213992507695 0.7337347214019068 -0.15299295665525947 16.519945073350726 0 0 0
53 3 0.1954174324033193 1.2209082113124017 -1.0919077383931204 16.365153856763147 0 0 0
54 3 0.2021964986501959 1.4664659713734753 0.5624928425139566 16.535763625953813 0 0 0
613 1 0.07717829437699818 2.2389224900760984 4.026525594239077 9.593774762817333 0 0 0
614 2 -0.1485273531445667 1.4729072116520556 5.159241857388435 9.549177841593526 0 0 0
615 2 -0.1522151676340311 1.3873448631131136 2.972823606060275 9.602493856156773 0 0 0
616 1 -0.1488421673935118 2.885450027537969 4.009454235220022 11.059532253667797 0 0 0
617 3 0.1922554006898727 3.537237528303503 3.15425431554029 11.21697409266945 0 0 0
618 3 0.2006278407984518 3.5677684842409945 4.8104086479506245 11.021048437159383 0 0 0
619 1 0.1141310460364277 2.0943566277735743 4.217725152320749 12.354918343489764 0 0 0
620 2 -0.1438084208156964 1.4089126824370122 5.422493783720282 12.27420723740758 0 0 0
621 2 -0.1443996003821807 1.0829331806166387 3.250162442582101 12.379885827450426 0 0 0
622 1 -0.001471141822193501 2.8346714678247595 4.168080857773143 13.795734651946034 0 0 0
623 3 0.209075061119173 3.3837521114516647 3.2471308821159672 13.788135946549762 0 0 0
624 2 -0.1416760568614473 -0.5802908286178111 5.140199663682251 13.82246937560354 1 0 0
625 1 0.1192506470352292 2.0433459960554083 4.1651552629660555 15.183619477587069 0 0 0
626 2 -0.1463431968683575 1.3250507469035795 5.379299614894917 15.305694760143222 0 0 0
627 2 -0.1432430905637559 1.1060375533999116 3.1408043463781343 15.163444341839469 0 0 0
628 1 -0.1513159683680304 2.866306063205744 4.040118355146315 16.477025616890153 0 0 0
629 3 0.1976086770223273 3.3811166225825136 3.1161057418740974 16.511015872431905 0 0 0
630 3 0.1972547176258118 3.646204871827242 4.735964981975979 16.501713668283866 0 0 0
55 1 0.0863066532400915 -0.09963779031837494 -0.09738780342107889 17.807977024358795 0 0 0
56 2 -0.1494178092466297 3.6582992657227043 1.09068214181988 17.820752004744488 -1 0 0
57 2 -0.1511738614632591 3.419758806153951 -1.1338801944394392 17.77964094451403 -1 0 0
58 1 -0.149801780791585 0.6922912757501827 -0.1316412665658837 19.243956392776322 0 0 0
59 3 0.2013780297112912 1.3136860396348964 -0.9498048429759505 19.29406359960287 0 0 0
60 3 0.1991338629792442 1.313489653342558 0.7465427722759661 19.30229941303588 0 0 0
61 1 0.1194698800793538 -0.1782737092908434 -0.1771321442210838 20.48977788834612 0 0 0
62 2 -0.1450655380327159 3.435595411797203 0.8942776930484522 20.45839090453612 -1 0 0
63 2 -0.1441781703699538 3.5171749745157386 -1.358280777420139 20.440584050197025 -1 0 0
64 1 0.0009253279566406019 0.5554490992679675 -0.13505147786734728 21.973356647652103 0 0 0
65 2 -0.1396526338418741 1.6317660473771523 -1.0744608707103736 21.937752421059113 0 0 0
66 3 0.2036064299975153 1.034901693148541 0.7980189408067084 22.11077380426431 0 0 0
67 1 0.1181113418030365 -0.16788653459226444 -0.28102884895655333 23.362480990485032 0 0 0
68 2 -0.1467126999818149 3.1789185773608692 0.5907747397521805 23.449819532836415 -1 0 0
69 2 -0.1415767768284406 -0.6780839491695914 -1.580773141898591 23.42664511564101 0 0 0
70 1 -0.157258997034666 0.649760667228533 -0.03143404340682787 24.62589935186842 0 0 0
71 3 0.2052700396964209 1.496221336220208 -0.698329321546211 24.67947751294129 0 0 0
72 3 0.1854833406722247 1.0423659941702672 0.908480041292782 24.55581603600733 0 0 0
631 1 0.07405522445959048 2.0561446903587295 4.077768175877463 17.87548709207037 0 0 0
632 2 -0.1517964535246526 1.264112017906549 5.196249448677953 17.88152031699427 0 0 0
633 2 -0.1498243208566558 1.1552122869654466 3.0164023369850517 17.86957010347631 0 0 0
634 1 -0.1558404161925432 2.8821291084645257 3.9885889248903794 19.25613359581477 0 0 0
635 3 0.1999210219077229 3.5784525019423836 3.217295114640506 19.158951715858162 0 0 0
636 3 0.1932832504279901 3.4185894885676897 4.877757815661219 19.29566200701088 0 0 0
637 1 0.1205324289281122 2.120286031929374 3.8730940776240113 20.55908675064971 0 0 0
638 2 -0.1443367671575478 1.1282637325836964 4.85228332249616 20.60589317681502 0 0 0
639 2 -0.1446558243483386 1.42602543219424 2.6445685526555724 20.485359328025233 0 0 0
640 1 -0.003950640615579816 3.0172627222567434 3.9111001363135136 21.870281331749137 0 0 0
641 2 -0.1432694918436265 -0.5770601925707928 2.784943321922886 21.86860807527541 1 0 0
642 3 0.2104502138651316 3.603864368443799 4.804793089224261 21.78729424497532 0 0 0
643 1 0.1241071888181307 2.317704883293403 4.005966011206206 23.34888657394612 0 0 0
644 2 -0.1422930730088658 1.6049681269409457 5.179117901958025 23.404641187000056 0 0 0
645 2 -0.1475237179633799 1.3708728209113974 2.978254352084714 23.467380140267014 0 0 0
646 1 -0.144234784423584 3.154848468832404 3.950015519897386 24.621090346769165 0 0 0
647 3 0.1891299143574725 -0.6426078258241883 3.0591272038014132 24.645867469892128 1 0 0
648 3 0.2033943873330376 -0.641636829981419 4.7796658369595795 24.67930575382858 1 0 0
73 1 0.07771864636839727 -0.10983519701138866 -0.16643273865421548 26.048861328469833 0 0 0
74 2 -0.1540884845121974 3.361545784810654 0.7928763854448122 26.09755208946016 -1 0 0
75 2 -0.1479598450827364 3.6690533693955136 -1.3385817438184802 26.09899017150179 -1 0 0
76 1 -0.1499905984027977 0.8172320147603658 -0.012074768014081805 27.319143334728864 0 0 0
77 3 0.2043224364700083 1.3978687316651612 -0.893566367428926 27.32183077088753 0 0 0
78 3 0.194596897887239 1.4065982382679643 0.868236802337615 27.22183636825651 0 0 0
79 1 0.1228233992644508 0.040791367668125855 0.08822211807728264 28.66059452022506 0 0 0
80 2 -0.1477808940514614 -0.5794224468598217 1.3070570913981139 28.586511855936912 0 0 0
81 2 -0.1421190750896284 3.5124713041692863 -0.8709569602506964 28.673849716703415 -1 0 0
82 1 -0.002383821961264309 0.7776223786668799 -0.03293831133106018 30.05745013536228 0 0 0
83 3 0.2134974329772815 1.1989236347066137 -0.9785384028235127 30.08128038254292 0 0 0
84 2 -0.1424692988379784 1.9684194507083799 0.9011114677774108 30.01052951217188 0 0 0
85 1 0.1195370772839362 -0.01898297592850251 0.13641638097811404 31.410789104602443 0 0 0
86 2 -0.1465169819118042 -0.5271112647846672 1.3891474850658785 31.468039450447627 0 0 0
87 2 -0.1423379595883253 3.342337777040322 -0.7808920993205155 31.387395759150934 -1 0 0
88 1 -0.1466595537365315 0.7357224117909553 -0.07297741672402891 32.797795623279875 0 0 0
89 3 0.2000888638008017 1.2815765110359556 -1.0183746731768892 32.654019289370986 0 0 0
90 3 0.194466711039535 1.463481290251464 0.6817752553511887 32.89789973780498 0 0 0
649 1 0.07996263464851594 2.346526714930665 3.983137471504893 25.990407539371574 0 0 0
650 2 -0.1484965115890216 1.5483729121804166 5.115518563163379 26.00152644571768 0 0 0
651 2 -0.15501982352486 1.4519943389030634 2.888744734802869 26.06321570448491 0 0 0
652 1 -0.1418643879253318 3.164411856583957 3.929974891834247 27.381218082849287 0 0 0
653 3 0.1907333629208804 3.5605498660503385 2.9056132183241363 27.48305479805598 0 0 0
654 3 0.2057921588944214 -0.48970877806134605 4.681219365616784 27.425573510201033 1 0 0
655 1 0.1193436168678297 2.3454929860978133 4.099170179072481 28.685505342396993 0 0 0
656 2 -0.141225559625321 1.7541066938563934 5.358506356928272 28.587814873931066 0 0 0
657 2 -0.1469180780496921 1.2968225058940024 3.20711476194833 28.644609296221525 0 0 0
658 1 0.003316860089109147 3.0208174755134256 4.002285614082621 30.120860898663892 0 0 0
659 3 0.2076831400281178 3.5791622534671785 3.088498628420947 30.12461183866614 0 0 0
660 2 -0.1391039771423932 -0.22293207199173193 4.891503235076337 30.17199778296692 1 0 0
661 1 0.1264957294422775 2.2406077374637365 4.094269703367811 31.518017005055654 0 0 0
662 2 -0.1420016275897979 1.632053314171995 5.365887803903276 31.608848286569803 0 0 0
663 2 -0.1457505365566059 1.2130428849594794 3.178690612200934 31.479540384319826 0 0 0
664 1 -0.1500446033210982 2.9525893571624824 3.8636584859703804 32.864991835523114 0 0 0
665 3 0.1904617683089759 3.4274481384284408 2.8973808596442243 32.79037145971216 0 0 0
666 3 0.1980902166294024 -0.7048171658892577 4.5438609366555935 33.027951910346985 1 0 0
91 1 0.07701125887940022 -0.07110626555262334 -0.10094899417495506 34.12651777850028 0 0 0
92 2 -0.1534591116837094 3.54075721691498 1.0023168137171132 34.073884371823844 -1 0 0
93 2 -0.1479912240323758 3.584646679386896 -1.2713548102431402 34.100032691984694 -1 0 0
94 1 -0.1508910411032216 0.6583739942804381 -0.08226092147428599 35.51323921578014 0 0 0
95 3 0.2041833218331776 1.4128623619115768 -0.8373605132780737 35.49126959125133 0 0 0
96 3 0.1910639815742152 1.1896983126105134 0.8378054289450141 35.6456076089155 0 0 0
97 1 0.1230412750956692 -0.11374666902417085 -0.264401907792877 36.81795997679214 0 0 0
98 2 -0.1456409845031348 3.303153103962059 0.5996822356102287 36.81299690583662 -1 0 0
99 2 -0.1413738970792561 -0.6620017657166061 -1.5291344200792236 36.727079148499676 0 0 0
100 1 0.006643906727828336 0.6247350424659381 -0.15249909093247904 38.261938201241975 0 0 0
101 2 -0.1386969681240325 1.7546436886045806 -1.0387515472486073 38.251555318842875 0 0 0
102 3 0.2062211574664483 1.0047969555474328 0.8464922840513709 38.34374624090725 0 0 0
103 1 0.1245257582410335 -0.16953593263275102 -0.3320693800714416 39.64028725231601 0 0 0
104 2 -0.1453635112418525 3.1943697688844312 0.5759721781057481 39.693120043926584 -1 0 0
105 2 -0.1429873822904002 -0.7296894142382555 -1.5573446411333753 39.64046798355803 0 0 0
106 1 -0.1455671178109016 0.5916432042642454 -0.2168623853815046 40.972810765678275 0 0 0
107 3 0.1920406179821012 1.2740159346944657 -1.0447629705354873 41.25052308699674 0 0 0
108 3 0.1955954813288414 1.2446728311717417 0.6101556936965471 40.80258648623782 0 0 0
667 1 0.07292329274095206 2.207104774867163 3.898649004357858 34.228666158018875 0 0 0
668 2 -0.1487653569943359 1.4531503136602857 5.054292526900639 34.229710228666086 0 0 0
669 2 -0.154065176285149 1.2972158267540825 2.8432387139720268 34.25499639129155 0 0 0
670 1 -0.1475982007718225 3.032615086379614 3.9063649359732233 35.53719275255966 0 0 0
671 3 0.1915433480345916 3.643505696562133 3.006777483602523 35.453319813035975 0 0 0
672 3 0.2008763318605922 3.684318627702796 4.779542503010177 35.60228299752253 0 0 0
673 1 0.1195498907884097 2.236904330204854 3.827375382133625 36.8698630422371 0 0 0
674 2 -0.141883532231853 1.3718459998324914 4.915915185603745 36.864847643414166 0 0 0
675 2 -0.1465334501131955 1.4234328441373139 2.6968484921197113 36.80544271905614 0 0 0
676 1 -0.00492267830349551 2.9744364343812295 3.7968248755568013 38.282878501534206 0 0 0
677 2 -0.1430729673670304 -0.5652176227932363 2.6841189866319493 38.33647959187496 1 0 0
678 3 0.2103000764440962 3.5773826508850237 4.65232219605191 38.32285150960124 0 0 0
679 1 0.1123772683246324 2.1630116663523626 3.861993522743484 39.69309532077409 0 0 0
680 2 -0.1438091882247589 1.1592070880133878 4.883916275823501 39.65204160646885 0 0 0
681 2 -0.1458447109375085 1.4951438127993169 2.653908578504449 39.8041873670432 0 0 0
682 1 -0.1483717274482383 2.9091722231946138 3.9756617000232 41.020883701081715 0 0 0
683 3 0.198052912965613 3.470794973164766 3.050652203300685 41.05010503640396 0 0 0
684 3 0.1932829966025085 3.5801157496605867 4.861907781861189 40.90182276151274 0 0 0
109 1 0.06955378522998515 -0.1576754802684741 -0.04779486666380395 42.336538192672066 0 0 0
110 2 -0.1512207481297949 3.567062035957464 1.140594080041684 42.269249377323035 -1 0 0
111 2 -0.152171092418535 3.362809134300998 -1.077539611623201 42.41636571162334 -1 0 0
112 1 -0.1472850510129426 0.5960284202034603 -0.0981290291103174 43.725629252010116 0 0 0
113 3 0.1892453584018258 1.1371416080975052 -1.0378002931705663 43.76468509990193 0 0 0
114 3 0.2001170470541122 1.410178232938259 0.6155790333040723 43.64862058904097 0 0 0
115 1 0.1222643584375012 -0.1760553185884579 0.0484574053665332 45.030462178221335 0 0 0
116 2 -0.1425661091251856 3.663827382170029 1.2424988302290436 45.005877489082955 -1 0 0
117 2 -0.1456805930383873 3.2416220926955726 -0.908970868644994 44.98845845788877 -1 0 0
118 1 0.001577867821976754 0.6225514722734709 -0.06937537980694142 46.392349887107116 0 0 0
119 3 0.208291176581046 0.9531334349400389 -1.0374434544767026 46.33601544253542 0 0 0
120 2 -0.1391385508318873 1.704680932391319 0.8252816101815714 46.37164171092566 0 0 0
121 1 0.125742574681802 -0.15649090088026196 -0.0071866941201919055 47.83486905184342 0 0 0
122 2 -0.143410815040889 3.6724993318256076 1.218734056535459 47.93304355012525 -1 0 0
123 2 -0.1458022530890815 3.353629251767017 -1.0329516550214908 47.92977382675173 -1 0 0
124 1 -0.1498190861675885 0.7230974639457683 -0.15898137168239068 49.03667622847052 0 0 0
125 3 0.1958178955616425 1.2910943304894613 -1.0482021035904594 48.9781199353225 0 0 0
126 3 0.1998767666307578 1.447839654420632 0.6021741142289514 49.162385370913164 0 0 0
685 1 0.07392184845294181 2.092676531961013 3.922158685918766 42.39462652820676 0 0 0
686 2 -0.1524328471109961 1.2434321644155324 4.974991551117196 42.43181313794206 0 0 0
687 2 -0.1512247159909402 1.3376706727497045 2.7452939762079795 42.396362720739624 0 0 0
688 1 -0.1470213026298646 2.9326990739070475 3.9580556597477363 43.69018517186188 0 0 0
689 3 0.195811053426198 3.5158868829591277 3.0445398223902176 43.6478784393518 0 0 0
690 3 0.1934210534294631 3.6495995334191833 4.7438769277792305 43.616321065539076 0 0 0
691 1 0.1254374001577516 2.2319521217446536 4.1067176901484395 45.122145950242256 0 0 0
692 2 -0.1453314049741813 1.5919358046821754 5.302808486909427 45.12654162075759 0 0 0
693 2 -0.1428222882498819 1.264024250974495 3.1282325160014874 45.130300738403385 0 0 0
694 1 -0.00336602012943219 3.0372921103334205 4.073525516114709 46.46367462269474 0 0 0
695 3 0.2104808703805778 3.5911426073959727 3.1731960357065656 46.42242540107497 0 0 0
696 2 -0.1428347121963321 -0.36143471378041153 5.192284506484771 46.43832212089483 1 0 0
697 1 0.1165825938043661 2.2789549304134535 4.065072011347687 47.83279336719681 0 0 0
698 2 -0.1458430007119505 1.6074019084073878 5.237867353825348 47.94554606086454 0 0 0
699 2 -0.1432766482480436 1.3247447408883448 3.0720312782167376 47.77424530003128 0 0 0
700 1 -0.1486014536233252 3.050922364677497 3.882484623058496 49.19112559367246 0 0 0
701 3 0.1990221967357012 3.6336036499277387 3.02896086267517 49.02021048572808 0 0 0
702 3 0.1968919586188868 -0.7413868423913509 4.751492587944092 49.17308966719583 1 0 0
127 1 0.07057647099143062 -0.029985983021010743 -0.1769281988578344 50.475916367021725 0 0 0
128 2 -0.1502571842378377 3.6942055457575784 1.0279769974224413 50.42438997285935 -1 0 0
129 2 -0.1522831155527012 3.472981254956744 -1.2167954653924529 50.52515722720339 -1 0 0
130 1 -0.147550584343803 0.7818380762700232 -0.16697169886087582 51.80356729315396 0 0 0
131 3 0.193710469272976 1.425941445834157 -1.028280097746205 51.720180407312945 0 0 0
132 3 0.194435908120331 1.4966384150561698 0.6319755024881339 51.7813655522026 0 0 0
133 1 0.1180766446122465 0.07749548079143331 -0.25829739205600033 53.20771454734041 0 0 0
134 2 -0.1432303205735196 3.5901807015558496 0.7556016212130268 53.200660984723584 -1 0 0
135 2 -0.1441718735964418 -0.6163701978547032 -1.4833069751107621 53.16136790128792 0 0 0
136 1 0.003305482149030809 0.8835140191584017 -0.20799369945806423 54.606838676865685 0 0 0
137 2 -0.1403498925969976 1.8821712266943935 -1.187493113713563 54.67187901885534 0 0 0
138 3 0.2131617422068947 1.3807867767125757 0.7533898574871372 54.49572412960308 0 0 0
139 1 0.1329325738605449 0.057944274302338505 -0.18261708881379546 55.97230405295621 0 0 0
140 2 -0.1420426106647512 3.5514814283415777 0.807968810833732 55.91511045567227 -1 0 0
141 2 -0.1426322331544761 -0.6312824614476927 -1.4104565745879967 56.085667211943715 0 0 0
142 1 -0.1443840590011799 0.7608839817142898 0.050738287999481546 57.29323495690048 0 0 0
143 3 0.1997099116092816 1.5543554736616088 -0.7152112835799165 57.34430023672307 0 0 0
144 3 0.1979784084665168 1.2262716202198758 0.9818866312578498 57.418546143271485 0 0 0
703 1 0.08042808633597981 2.2141670068628625 3.904124271782126 50.528551959750104 0 0 0
704 2 -0.1521914205121315 1.3796121529415988 5.016094210815452 50.45399179602453 0 0 0
705 2 -0.1500813023578678 1.4070408412888935 2.7944436037713984 50.54240811942446 0 0 0
706 1 -0.1508704283028075 3.0108854166978363 3.9854858708206624 51.88233617334584 0 0 0
707 3 0.2010054373550242 3.6891231431188047 3.151952651128658 51.7835024345152 0 0 0
708 3 0.1959374362315952 3.587031580335959 4.835524293577839 51.92065458067832 0 0 0
709 1 0.1250162595471499 2.215971169217115 3.850529339130339 53.20779360070752 0 0 0
710 2 -0.1445208837041443 1.1809900852696176 4.768402187437691 53.16591988455989 0 0 0
711 2 -0.143175647939135 1.66738673879123 2.6118179280255136 53.1697489399742 0 0 0
712 1 0.004410802102699046 2.955930263069013 3.923571172515083 54.620761855945105 0 0 0
713 2 -0.1394881563631277 -0.348815590870168 2.931237584433446 54.62930714983308 1 0 0
714 3 0.2110829291958533 3.525334783325151 4.8327027928026975 54.681561225848014 0 0 0
715 1 0.1270949658174547 2.196932244736709 3.7609095233254033 56.02350098780298 0 0 0
716 2 -0.1423064760288465 1.0937196973719654 4.61464441085273 56.01373037003034 0 0 0
717 2 -0.1421793863912116 1.70426310224145 2.50146320743071 56.014795567239545 0 0 0
718 1 -0.1487507559517532 2.8914177225411573 3.938441348409196 57.397361200091865 0 0 0
719 3 0.1968297013109606 3.575177864333306 3.16013848013393 57.557643298786175 0 0 0
720 3 0.2000548643888532 3.458387789784766 4.808350780427896 57.31999532690274 0 0 0
145 1 0.07662876211910438 -0.12681831397407406 -0.21792564962955496 58.61410719016905 0 0 0
146 2 -0.1509718647832433 3.3740867373019072 0.8854998665285643 58.68066153817648 -1 0 0
147 2 -0.1500369426597931 3.610475296249709 -1.359935969771199 58.45498290167478 -1 0 0
148 1 -0.1595052465654954 0.5764750643142926 -0.3075040241564766 59.99183485098361 0 0 0
149 3 0.1856482986316388 1.1935460663945405 -1.2039732645265226 60.00969612268359 0 0 0
150 3 0.1839763545601877 1.268571113792389 0.5162510010624985 60.014072059623146 0 0 0
151 1 0.07639634426325666 -0.23888950879545567 -0.41042299807789395 61.319887735937726 0 0 0
152 2 -0.1505098603705595 3.2623643792936297 0.7073597367016915 61.33506569827178 -1 0 0
153 2 -0.1520456352862637 3.475290503092388 -1.5958757804289505 61.362610565956814 -1 0 0
154 1 -0.1547488667936484 0.6095921120960117 -0.2811561746327429 62.68643441041395 0 0 0
155 3 0.1884222925787966 1.3654747655963857 -1.0386365855149196 62.715862121603664 0 0 0
156 3 0.1886059136880334 1.149875693583151 0.5814809272874784 62.57090578207658 0 0 0
157 1 0.08391712037727767 -0.13120144957606272 -0.21334792420420867 64.02638108984284 0 0 0
158 2 -0.1497163448056638 3.3606254937430715 0.8017414118603567 64.02335772978785 -1 0 0
159 2 -0.1500288821533734 3.6080661240053815 -1.3856961091545643 64.08311960860051 -1 0 0
160 1 -0.1554510197001935 0.7534139537852067 -0.09414503486970416 65.38121416518668 0 0 0
161 3 0.1913848797560084 1.4870770285438746 -0.7853191230070351 65.34083554072271 0 0 0
162 3 0.1891715016123287 1.2996136057305168 0.8474363236028712 65.27923186583699 0 0 0
721 1 0.07665656044645117 2.009316475872523 3.896269833100292 58.71628169198513 0 0 0
722 2 -0.15012190372661 1.249926387721748 5.010745365877442 58.654822288798144 0 0 0
723 2 -0.1509215395129594 1.1914372275826781 2.8188467369653045 58.69802083372559 0 0 0
724 1 -0.1643498743451462 2.7582955883912703 3.864509015661996 60.11337133605075 0 0 0
725 3 0.1867370944742351 3.4389994150301972 3.103904548329383 60.06760374936623 0 0 0
726 3 0.1843455391681568 3.317182318142399 4.7531929009062726 60.22600163618219 0 0 0
727 1 0.07691348671411712 1.9760199733705086 3.8439976205481807 61.45348561063841 0 0 0
728 2 -0.1517825509732585 1.048680641991263 4.8616494287483665 61.448218435048034 0 0 0
729 2 -0.1504716705164675 1.2542783678857892 2.6087618125889342 61.47490533680022 0 0 0
730 1 -0.1539866957924916 2.860062710750434 3.8809758875553637 62.79296391653061 0 0 0
731 3 0.1886957337821571 3.5994007628642755 3.116554221021852 62.807860739285374 0 0 0
732 3 0.1884880994360872 3.40996882840278 4.759806736849842 62.673195837610805 0 0 0
733 1 0.08394219665868421 2.1103118379712718 3.9498298892744685 64.17268405810664 0 0 0
734 2 -0.1496979830483975 1.2427141744362868 5.063839634811049 64.07997688379535 0 0 0
735 2 -0.1497982524507493 1.2857145986363752 2.7504861470264608 64.19060411611234 0 0 0
736 1 -0.1545363349303789 2.9555613506944898 4.000316471408263 65.50567187283897 0 0 0
737 3 0.1886097606951984 3.6194940067549592 3.1219550377018708 65.4510005233113 0 0 0
738 3 0.1905217200519358 3.6196280137664485 4.838860189754884 65.48224031159617 0 0 0
163 1 0.09030223049351603 0.09405114995901176 -0.12469010062397334 66.74780067138826 0 0 0
164 2 -0.1484042766071222 3.5939250238429703 0.8630605927057706 66.74330593547609 -1 0 0
165 2 -0.1494380198598451 -0.6689390620937951 -1.310914402889685 66.78336640028051 0 0 0
166 1 -0.1413792258644626 0.8622866494101311 -0.04556536353660379 68.26844118248194 0 0 0
167 3 0.2013012331216939 1.6228520703321339 -0.7491129467030444 68.38986212493288 0 0 0
168 3 0.2002070166741426 1.4018965387185727 0.8982525837656019 68.33872197903547 0 0 0
169 1 0.1183352655170923 0.03949042171485684 -0.1399024731146996 69.4962647587479 0 0 0
170 2 -0.1441146015471118 3.538053339188165 0.8616352169389789 69.37661860116876 -1 0 0
171 2 -0.143964390262161 -0.6697291518465341 -1.3057015382024848 69.4762492667817 0 0 0
172 1 -0.004483870283540883 0.7501812420923952 -0.029368254683494577 70.97295094197264 0 0 0
173 2 -0.1416169099293496 1.6656420430490018 -1.149191073155236 70.99983842177822 0 0 0
174 3 0.2072614626732187 1.3788642513383644 0.8265830579164724 71.01693442336875 0 0 0
175 1 0.1189254762470449 -0.12902979808541448 -0.0564135476252563 72.30434411812146 0 0 0
176 2 -0.1453551778662683 3.3839173831253277 0.9033086291543801 72.1759794761912 -1 0 0