LAMMPS data file via write_data, version 2 Aug 2023, timestep = 0, units = real

1152 atoms
3 atom types

-0.7484942767458893 3.699494276745889 xlo xhi
-2.1406285137248204 6.009628513724817 ylo yhi
-7.253798587558677 253.94540058869865 zlo zhi

Masses

1 12.0107
2 18.998404
3 1.00794

Atoms # charge

1 1 0.07510040584558059 -0.08990865630249334 -0.06320036846067367 -6.581721867914613 0 0 0
2 2 -0.1508826625675149 3.576882899098056 1.053609982648645 -6.555114174957864 -1 0 0
3 2 -0.1498689316869918 3.4397918136482994 -1.181931221759612 -6.619691357377283 -1 0 0
4 1 -0.1601928000618598 0.6993278670039564 -0.1356699551439191 -5.2965345235075905 0 0 0
5 3 0.1923099233827569 1.277765682116987 -1.0188844120741627 -5.31806539235995 0 0 0
6 3 0.1860053904625423 1.30405399066948 0.7375851436982384 -5.216557447919706 0 0 0
7 1 0.08077603988305672 -0.07854555589247081 -0.20603173748825432 -3.856311851711627 0 0 0
8 2 -0.1515079573826496 3.5110009346831594 0.8640218454611182 -3.8781945048890805 -1 0 0
9 2 -0.1476776501618426 3.6114104708214674 -1.3353980656590103 -3.82454729039571 -1 0 0
10 1 -0.1497307818004404 0.692046950882671 -0.12291798335203863 -2.5175457905038092 0 0 0
11 3 0.1947680761780136 1.431037157214238 -0.8718538506204006 -2.5265904084099926 0 0 0
12 3 0.1851131385601321 1.234864172303763 0.8008678313743385 -2.4930712507763912 0 0 0
13 1 0.08913423711376663 -0.07514008048442455 -0.23138153070820766 -1.1002322555791277 0 0 0
14 2 -0.1532047846265456 3.5368614390417 0.874066639727495 -1.0462388523920811 -1 0 0
15 2 -0.1474046781930385 3.621105609989198 -1.3561852415976265 -1.2092480848741483 -1 0 0
16 1 -0.1538019139091427 0.7602470163749631 -0.25709680780673705 0.18569790630046779 0 0 0
17 3 0.1943313483492982 1.3864070154929582 -1.0952751689777238 0.24694548489875068 0 0 0
18 3 0.1762412424420027 1.5180068535510736 0.5388536743767611 0.30557067767654456 0 0 0
577 1 0.07790187265644567 2.1217335046476626 3.906748632242648 -6.572597862799869 0 0 0
578 2 -0.1505304358076132 1.2636046949098887 5.022776310861873 -6.476615494271941 0 0 0
579 2 -0.1513960418081654 1.3027966419971886 2.8402770592065503 -6.627672791283994 0 0 0
580 1 -0.1595292370138356 2.953481761248095 3.8095518127695707 -5.248994637999373 0 0 0
581 3 0.1869828302202166 3.4898031773787617 2.887774346866628 -5.178790463790381 0 0 0
582 3 0.1896792860609204 3.673407762150969 4.548718380267464 -5.28001579103095 0 0 0
583 1 0.0863443918716551 2.163120785559328 3.918186886471198 -3.8620171856058136 0 0 0
584 2 -0.1479432259157302 1.3362589315368556 5.0423303814362725 -3.873851852366688 0 0 0
585 2 -0.1517847510658847 1.3111879516945106 2.85197571325633 -3.7686922534645264 0 0 0
586 1 -0.1505074622833864 2.958308101406241 3.909445938995349 -2.532969783904645 0 0 0
587 3 0.1863232464086301 3.5162516246088424 3.004944558773108 -2.4124393478791264 0 0 0
588 3 0.1980937243233546 3.592012372799913 4.760549462845121 -2.5372004553648164 0 0 0
589 1 0.08318299866383444 2.132056702997766 3.9166052527749766 -1.1684274851559993 0 0 0
590 2 -0.1476627262976277 1.3014063095550372 5.039074724525041 -1.1631092127794682 0 0 0
591 2 -0.1527651881071219 1.2698640649486612 2.9035555611034045 -1.2234189011519163 0 0 0
592 1 -0.1622539917820776 2.910606045121275 3.8344520800406396 0.1727447062281815 0 0 0
593 3 0.1808206451743618 3.28267396649958 2.8625805281798495 0.33125521206094444 0 0 0
594 3 0.1916311769312054 -0.6786017850025257 4.472149083575615 0.06585875288073417 1 0 0
19 1 0.07076618151009532 0.0026231755927573763 -0.15576523866339564 1.5992494596690552 0 0 0
20 2 -0.1551016595422642 3.5918910501421015 0.9083439373485511 1.5139448831366877 -1 0 0
21 2 -0.1482120557673227 3.632782238452153 -1.2708644813066716 1.6539620307283638 -1 0 0
22 1 -0.1539005134214184 0.8046728455083425 0.04105622776793716 2.9175978444258437 0 0 0
23 3 0.2018271932476489 1.6765818061753892 -0.5398867357560857 2.8906945642987765 0 0 0
24 3 0.1908179689709359 1.1372723511849905 0.9907373538079516 2.8071146011517225 0 0 0
25 1 0.1342343644410154 -0.026456964472203026 -0.21189870815384504 4.183084379903661 0 0 0
26 2 -0.1451444280825935 3.436911667585255 0.7097487240449136 4.214020164353787 -1 0 0
27 2 -0.1406622526909984 -0.6326061214934158 -1.4468168616572596 4.109617079993521 0 0 0
28 1 0.002328056550917617 0.7747168603901857 -0.09413173440277944 5.6769259318752106 0 0 0
29 2 -0.139011161291922 1.863042074237883 -1.0518774083348912 5.63809210850196 0 0 0
30 3 0.2084287098949471 1.254867795887738 0.8379005394403709 5.639549294661196 0 0 0
31 1 0.1178811963968107 0.04250368667692095 -0.19958982824695926 7.037214325536693 0 0 0
32 2 -0.1455253987030287 3.497416165218964 0.7511203846955352 7.09000439568913 -1 0 0
33 2 -0.1432019994681943 -0.6133994305507402 -1.4624846991229155 7.107167609153791 0 0 0
34 1 -0.1469497957866419 0.7880762649303739 -0.04353465400702605 8.37447465956928 0 0 0
35 3 0.1991701461619687 1.4729950585235687 -0.888339620769351 8.415009880400522 0 0 0
36 3 0.1943085132290476 1.4447447892694707 0.7991204283264643 8.269365174677487 0 0 0
595 1 0.07564852770010144 2.0751411074539043 3.9989938297619645 1.4891495568870177 0 0 0
596 2 -0.1472292192012047 1.3174527885502907 5.202471226566125 1.4320146194108272 0 0 0
597 2 -0.15370160978986 1.1879765520554983 2.930135257873065 1.5460861195416022 0 0 0
598 1 -0.1519770115799766 2.92232521294406 4.026015605418671 2.803503493314862 0 0 0
599 3 0.1930168753376309 3.579454124086052 3.2223371768716618 2.7593028399412205 0 0 0
600 3 0.2046996682367187 3.4703220809836033 4.919010194488982 2.810487099884547 0 0 0
601 1 0.1201073315904647 2.2413163965550034 3.8415356616893925 4.195589580677517 0 0 0
602 2 -0.1399230453368897 1.2088171370239695 4.8056882746002 4.30652319839378 0 0 0
603 2 -0.1451125050000825 1.6094851809146875 2.5579508055121822 4.117281731918414 0 0 0
604 1 -0.002357515406592115 3.0347642235168686 3.903216649607298 5.600235315353549 0 0 0
605 2 -0.1420158828507797 -0.31849821797221 2.8819601908972423 5.5590909717206 1 0 0
606 3 0.2132180813402874 3.5170535841553354 4.851747513915208 5.610583707692875 0 0 0
607 1 0.1187607787804368 2.26700637320637 3.894765486529204 6.988218258613346 0 0 0
608 2 -0.1437345534853841 1.397315685350053 4.970948985501497 7.051769166861737 0 0 0
609 2 -0.145773059210454 1.5117914416354523 2.7242280915621917 7.088265876053416 0 0 0
610 1 -0.1472439628489014 3.0865339307137734 3.9691943006975627 8.279847913372889 0 0 0
611 3 0.1981250987147394 -0.6661264316313491 3.1754091176812294 8.285528006045517 1 0 0
612 3 0.1961319472610998 -0.7311063666847706 4.829077255493179 8.303013061799128 1 0 0
37 1 0.07669370118366645 0.017305512183759864 -0.02026785197408243 9.730858990583965 0 0 0
38 2 -0.1515009994596714 3.605530676748427 1.0532229321148465 9.79033050665224 -1 0 0
39 2 -0.1507986512836728 3.6757526545175603 -1.1503974135366006 9.705487479715831 -1 0 0
40 1 -0.1470861923858827 0.8059804761136071 -0.05723441871273183 11.086496164500343 0 0 0
41 3 0.1959934179900505 1.3998328637842072 -0.9367097645047577 11.118336526250427 0 0 0
42 3 0.1990954028076747 1.4693091317500615 0.7884634528824135 10.988558257041312 0 0 0
43 1 0.1232523371361208 -0.05213169695585451 0.037124392841212384 12.43584464610976 0 0 0
44 2 -0.1429634826862913 3.665225266639684 1.2434101827936113 12.445373317824082 -1 0 0
45 2 -0.1449088992675779 3.4918480433971864 -0.9836129816696713 12.350707578193887 -1 0 0
46 1 0.004349443671466301 0.7327584538036649 -0.08281823526201793 13.763137061590133 0 0 0
47 3 0.2098599695982032 1.1818239306951879 -1.0592566872121707 13.691098541502193 0 0 0
48 2 -0.1389596524621241 1.836749048493469 0.9364408612106758 13.79189864241091 0 0 0
49 1 0.1321129611713434 -0.03322228549260142 -0.03154732131285831 15.181939400542436 0 0 0
50 2 -0.1422413486042228 -0.7088095256245114 1.1560085541791145 15.239421481747847 0 0 0
51 2 -0.1440022997478166 3.4021112775217874 -0.9788956746191215 15.15897475373339 -1 0 0
52 1 -0.148222018491138 0.7102398006301887 -0.16039171729281887 16.52558524200824 0 0 0
53 3 0.1965952137129213 1.253337944479688 -1.0526118954032995 16.573367109919648 0 0 0
54 3 0.1995065932517358 1.4235876198217041 0.6079004463973194 16.6105969769891 0 0 0
613 1 0.07750644301326674 2.3081442123824387 3.946242529343297 9.664947162838686 0 0 0
614 2 -0.1512693897481747 1.5089111754972215 5.038630432851601 9.622761826041465 0 0 0
615 2 -0.1519132269859154 1.4758530932571023 2.820529491466485 9.665258846554433 0 0 0
616 1 -0.1482364528528136 3.0483222499007034 3.9828350971170616 11.030419843262028 0 0 0
617 3 0.1970323954254728 3.5559465067897627 3.038148640650925 11.164883819893653 0 0 0
618 3 0.1984898784583145 -0.6834450054553107 4.756339439165715 10.978560257698998 1 0 0
619 1 0.1149979921656634 2.2245276438506836 4.16258891027308 12.340180103692013 0 0 0
620 2 -0.1456690547352755 1.5042856476653994 5.302015804480664 12.183264977382436 0 0 0
621 2 -0.1441690259496373 1.3278299379166714 3.1026822188030803 12.32830054137166 0 0 0
622 1 0.002422794901990103 2.9106101437014718 4.183599681054622 13.772355950154857 0 0 0
623 3 0.2094542275052728 3.4850460153088276 3.274531902945978 13.844694588270038 0 0 0
624 2 -0.1419701578418498 -0.42404513499074614 5.103628914936757 13.798126366467667 1 0 0
625 1 0.1202401124810435 2.134278326567799 4.197881711103558 15.193363635361255 0 0 0
626 2 -0.1450510701582774 1.4479076105196493 5.356542945324478 15.28112705645885 0 0 0
627 2 -0.1431284766101453 1.121523116087392 3.1916586310850077 15.14715262179405 0 0 0
628 1 -0.1493270291515186 2.8825426955466935 4.0193185498111665 16.52201997034379 0 0 0
629 3 0.1964958195972307 3.35883221855394 3.06645341761409 16.459868336521474 0 0 0
630 3 0.1959066478930691 3.6828943198436326 4.7094979136946185 16.676122500207192 0 0 0
55 1 0.06996198559296005 -0.0740557391379365 -0.07875979656122878 17.88221573947691 0 0 0
56 2 -0.1506782459354342 3.5567256136086973 1.0385495946364043 17.844421355569676 -1 0 0
57 2 -0.1514434599675087 3.5115047934531782 -1.2057678313063653 17.819355356933254 -1 0 0
58 1 -0.1444286116641668 0.5619465994628252 -0.14135378658663655 19.301038503619925 0 0 0
59 3 0.1979509812843538 1.3285904897601308 -0.9354587097494953 19.30311381699784 0 0 0
60 3 0.192787643897419 1.1405360695844793 0.7775458877337695 19.330767481193394 0 0 0
61 1 0.1219297833001358 -0.31316540689258276 -0.22205384673122053 20.57181663892905 0 0 0
62 2 -0.1461688164303888 3.1781054931039256 0.7825624085173022 20.49861539901014 -1 0 0
63 2 -0.1465756197939928 3.513954766949581 -1.4562454606766675 20.462860473623415 -1 0 0
64 1 -0.003545171672056861 0.5679837761709186 -0.10588898460704277 21.867486212868165 0 0 0
65 2 -0.1430407220545076 1.6420653662338673 -1.063683373285197 21.80783111865752 0 0 0
66 3 0.2090521100971774 1.0629241865890595 0.8462014847579544 21.86212440752715 0 0 0
67 1 0.1182644619580298 -0.2269846599836789 -0.23705949759257217 23.301822629993463 0 0 0
68 2 -0.1435200055709548 3.1755677141115477 0.655490347218922 23.292872385261234 -1 0 0
69 2 -0.1462912690665792 3.668800898207505 -1.5107085219116527 23.338923674862507 -1 0 0
70 1 -0.1494444690561908 0.5534620167016882 -0.025816620700578774 24.62308773224264 0 0 0
71 3 0.1929510456164203 1.335043922735426 -0.8044554560134978 24.65606193179996 0 0 0
72 3 0.1991162537975979 1.122389673384293 0.8504849140071689 24.531232343513896 0 0 0
631 1 0.07423161157120305 2.0591705860196194 3.982514672788377 17.87123370234336 0 0 0
632 2 -0.1522759127824409 1.1770621220415696 5.01771275387419 17.887103550912794 0 0 0
633 2 -0.1510805553460234 1.3109755496820608 2.8770335236752507 17.82147817772284 0 0 0
634 1 -0.1506194472044899 2.8623640395908647 4.044249349405681 19.241929204838087 0 0 0
635 3 0.1981875532823372 3.5576160175118066 3.2628431977486665 19.227505390481717 0 0 0
636 3 0.1940172313005376 3.419711513341414 4.9755948277012045 19.241497433204533 0 0 0
637 1 0.1266801941516829 2.0984258941010765 3.93397377500094 20.576100823853626 0 0 0
638 2 -0.1461480699558077 1.1701305672980742 4.944167542631815 20.51841743451456 0 0 0
639 2 -0.1450285828787096 1.3720849102593107 2.7745083352209354 20.565594637298048 0 0 0
640 1 -0.0041208237793437 2.9941765480030793 4.015098960162512 21.981694187621187 0 0 0
641 2 -0.1415448302780264 -0.4349733011108432 2.922742678535367 21.932611276160937 1 0 0
642 3 0.210309624001666 3.5569251971535927 4.860741064230525 21.925811228769923 0 0 0
643 1 0.1169318514096143 2.2300806615142847 3.968698551738365 23.330531597408047 0 0 0
644 2 -0.1455852707338011 1.2378552055753562 4.9886614623973475 23.273279619546155 0 0 0
645 2 -0.1428168179376307 1.5521068229011314 2.7682086323375286 23.360901278289113 0 0 0
646 1 -0.1468146942328054 3.0122093488478914 4.114274197881668 24.735251289136844 0 0 0
647 3 0.2018829609544156 3.699381361403474 3.3140018602749812 24.604983164703064 0 0 0
648 3 0.1907228482491688 3.5632230227314228 5.080244146600401 24.697555354832794 0 0 0
73 1 0.07079366643098683 -0.14333673188349205 -0.005571064564148909 26.094283725594487 0 0 0
74 2 -0.1464381922818659 3.6280005216498976 1.2421109625731197 26.22144536423135 -1 0 0
75 2 -0.1526426401184686 3.2813657760038693 -0.9378515825375078 26.021881223332493 -1 0 0
76 1 -0.1560412406499068 0.6584895041731298 -0.18831255923638346 27.42022336201888 0 0 0
77 3 0.1871527081785561 1.1273546019470388 -1.1029941156509107 27.38190021488741 0 0 0
78 3 0.2079929020500063 1.38916925260596 0.5526390756145139 27.36731143180978 0 0 0
79 1 0.1289232033975835 -0.06337511684476016 -0.07799577912205402 28.786659974701394 0 0 0
80 2 -0.1382144090816675 -0.61286711243103 1.1759903820157511 28.81321984655797 0 0 0
81 2 -0.1462197965388925 3.3536550322315515 -0.970357137396118 28.75698680031077 -1 0 0
82 1 0.006530024394390227 0.7350314746369702 -0.20312767832474554 30.167244645067235 0 0 0
83 3 0.2070931724600828 1.1626043413582865 -1.2095542069896994 30.24267577438726 0 0 0
84 2 -0.1364934983704231 1.8483736993811957 0.8446060823259489 30.17413014950307 0 0 0
85 1 0.1282258483582228 -0.036644699133376646 -0.07780810549857975 31.4927630029555 0 0 0
86 2 -0.1406521021682987 -0.693385700618095 1.1260874163712744 31.530986205808006 0 0 0
87 2 -0.1454392910110756 3.410565685814343 -1.0846389309699167 31.49707089692818 -1 0 0
88 1 -0.1448914756527381 0.7106204989138478 -0.19744076873255723 32.914274551869205 0 0 0
89 3 0.1917878624489218 1.3007418884635875 -1.0892698312176754 32.9259541807392 0 0 0
90 3 0.1979856236239417 1.4282834992728457 0.5721236120539333 33.11273426923803 0 0 0
649 1 0.07811545124589357 2.2613718428706377 4.025045153560101 26.057395588392723 0 0 0
650 2 -0.1533591131136321 1.326031907804265 5.062317910521552 26.02962778108867 0 0 0
651 2 -0.1473594656367109 1.574592187015332 2.815044389695661 26.014434656193934 0 0 0
652 1 -0.1493769566686855 3.0798077635436165 4.140881218254234 27.489521419560795 0 0 0
653 3 0.2033872134967933 -0.6491011765526373 3.36884534770679 27.440924286735317 1 0 0
654 3 0.1913067880792093 3.634287210176967 5.05463016595102 27.5411283150289 0 0 0
655 1 0.1223671510624262 2.263757040672349 4.074976687881684 28.785730629319872 0 0 0
656 2 -0.1470682509444867 1.4894262038026889 5.258527908071888 28.814831581422226 0 0 0
657 2 -0.1397409028489782 1.318404225267229 3.0394902494930456 28.73906823641282 0 0 0
658 1 0.0002919326498521946 2.999794764189508 3.926583747575509 30.20045272263853 0 0 0
659 3 0.2189368476551819 3.3681046617612918 2.9617010654506197 30.276647272227883 0 0 0
660 2 -0.1431919130148999 -0.2976041435580905 4.761996079003269 30.24116120921157 1 0 0
661 1 0.1187259345478444 2.189346647490091 4.043499634865879 31.594112399726136 0 0 0
662 2 -0.1462355583333839 1.5176052767386783 5.272026731072046 31.593336102503635 0 0 0
663 2 -0.1422493183891564 1.2044670344015218 3.0392902858693276 31.647905417738052 0 0 0
664 1 -0.1506617181288726 2.951548951309554 4.0136084968693675 32.9423922550064 0 0 0
665 3 0.1978343480274655 3.5137579401178396 3.1014234596917847 32.86063873452252 0 0 0
666 3 0.1963986731477721 3.646081108393707 4.792105003602908 33.02211130140446 0 0 0
91 1 0.07037347632706073 -0.10469444734054367 -0.030368308762706686 34.20791936283104 0 0 0
92 2 -0.1512816153773946 3.6721753153570313 1.1301427426594128 34.18507535834939 -1 0 0
93 2 -0.1512017037950729 3.338134543677482 -1.0253878173596285 34.25042612356143 -1 0 0
94 1 -0.1509271364259529 0.6589735251198678 -0.0670505990779704 35.65375191193952 0 0 0
95 3 0.1973153340651149 1.4313724732238144 -0.7964197912782416 35.59062329548585 0 0 0
96 3 0.191915367148825 1.1984602996707747 0.8508787884435098 35.76543337105035 0 0 0
97 1 0.1191300456601931 -0.10956118835700313 -0.20159046606700448 36.95328107622413 0 0 0
98 2 -0.145726766674813 3.291523871294598 0.6889694692174801 36.9198633176222 -1 0 0
99 2 -0.1431268787540506 -0.7005256446637206 -1.5273315283986428 36.916499413625026 0 0 0
100 1 0.006848295006221946 0.7093988928872443 -0.09942795670132121 38.33050248912562 0 0 0
101 2 -0.140082966853717 1.8029082151017555 -0.9976761199057143 38.3391316073296 0 0 0
102 3 0.2072468915859812 1.063789571100117 0.9260981527235175 38.2629695369193 0 0 0
103 1 0.1216818635493368 0.007954774806661957 -0.21033957355456567 39.77724896162325 0 0 0
104 2 -0.1451674042299536 3.4665544233979846 0.7197975630568183 39.85983778589655 -1 0 0
105 2 -0.1426233418691056 -0.6333048354497228 -1.463728360790253 39.755288757769875 0 0 0
106 1 -0.1446843912339665 0.7887899012542539 -0.1582474685080415 41.063148677774734 0 0 0
107 3 0.2020049113727904 1.3769171272347145 -1.0467600215909794 41.00731192464503 0 0 0
108 3 0.1958801715503973 1.484138715922469 0.6830494268584326 41.04856995542352 0 0 0
667 1 0.07473176597492139 2.1000583330434175 3.9443112615446063 34.283758496893206 0 0 0
668 2 -0.1512848987485455 1.206125444064539 4.997496117471774 34.282764631584165 0 0 0
669 2 -0.1515011826908904 1.3501530911189104 2.7882989574624535 34.204773640885314 0 0 0
670 1 -0.1537704387591243 2.8708068549869368 3.9268322586712836 35.67132195810674 0 0 0
671 3 0.1955859333710941 3.594938615000679 3.155393196090584 35.586655274216284 0 0 0
672 3 0.1947932418074483 3.438950039787075 4.799985530672936 35.76694573839714 0 0 0
673 1 0.1161839378584986 2.105372476736315 3.8714741354012476 36.981959713936064 0 0 0
674 2 -0.1436570860974787 1.1741347082772593 4.918122874645511 37.061629451773065 0 0 0
675 2 -0.1460924377949303 1.4046866735682806 2.6675796362823236 36.916112753520395 0 0 0
676 1 -0.0003587623963443951 2.937650693957113 3.866837091324392 38.39279549578877 0 0 0
677 2 -0.1425168132407955 -0.5635350007278364 2.804100989172227 38.32664533414382 1 0 0
678 3 0.2114914598261673 3.507724812406847 4.782140722968954 38.35978987479407 0 0 0
679 1 0.1160848078664641 2.188219234563098 3.854552754615791 39.786963006706664 0 0 0
680 2 -0.1430867910060552 1.2583783715233063 4.914902591221225 39.77289798652542 0 0 0
681 2 -0.1446882884711181 1.3863945186392868 2.6439785672267924 39.81670027348684 0 0 0
682 1 -0.1501414892164318 2.913338230036515 3.9473405459320654 41.14921383122012 0 0 0
683 3 0.1993602452642442 3.472585062951536 3.038231492123754 41.12198282143641 0 0 0
684 3 0.1951125324645335 3.593302312333779 4.78485684979181 41.227604276179505 0 0 0
109 1 0.07784026598937961 -0.06150241630810904 -0.06633201294165092 42.49395457545846 0 0 0
110 2 -0.1514611485302403 3.6453239501429247 1.027484911287635 42.42054186619759 -1 0 0
111 2 -0.1515525416506874 3.477361783078333 -1.116577997999196 42.524188311861884 -1 0 0
112 1 -0.1445502604335734 0.7486397449389537 -0.07481805908243899 43.8368095370407 0 0 0
113 3 0.1929631168441913 1.3114400389423295 -1.0240825798937427 43.8854492193196 0 0 0
114 3 0.1992212210850813 1.4776711511571419 0.6895362424662306 43.75764062624398 0 0 0
115 1 0.1232200088254586 -0.01525782110904872 -0.017977000126980336 45.18680223340684 0 0 0
116 2 -0.1425202439539699 -0.6342120171594735 1.2222952755684346 45.174849302888774 0 0 0
117 2 -0.1463101347666872 3.4291554851307 -0.9859635274402421 45.17281078976698 -1 0 0
118 1 0.001207933005995322 0.8257865640569366 -0.13898732627144206 46.55287733140386 0 0 0
119 3 0.2069677246312467 1.253260377030783 -1.1173083497343108 46.48419854417663 0 0 0
120 2 -0.139138316443655 1.8734692371652737 0.9201820924617476 46.542951534578826 0 0 0
121 1 0.1286294555198666 0.0595131774625266 -0.03798600126201368 47.93417364996151 0 0 0
122 2 -0.1418442585339295 -0.5468262285852517 1.23828700616053 47.99380559494958 0 0 0
123 2 -0.146387884004895 3.5256230272543583 -1.002434321243981 47.95291974649079 -1 0 0
124 1 -0.1522547618236283 0.8633185500456644 -0.17569148597441542 49.210965810601955 0 0 0
125 3 0.192688742546291 1.404468381078079 -1.060405466442107 49.25334949662715 0 0 0
126 3 0.2049722815364788 1.5808442693274731 0.5704634801525206 49.21968601501035 0 0 0
685 1 0.07491642493201477 2.1247356438856513 3.9580995069005587 42.497739337683846 0 0 0
686 2 -0.1515290236284994 1.23060179546659 5.033597689942446 42.50313904018015 0 0 0
687 2 -0.1509922254273703 1.362087216775271 2.8211252105099014 42.52542333196335 0 0 0
688 1 -0.1487757674753846 2.909837559445422 3.9791396111770707 43.86640999115968 0 0 0
689 3 0.1974290872493206 3.462086323991099 3.0308666997734077 44.008211905236095 0 0 0
690 3 0.1976364617374802 3.6153712343553064 4.736415361359397 43.82419313509972 0 0 0
691 1 0.1200769678600996 2.0859783122100217 4.172339380222772 45.163560649176844 0 0 0
692 2 -0.1478696022908668 1.4728875351013277 5.383236919165595 45.01292672184034 0 0 0
693 2 -0.1443242649871322 1.1192641403375323 3.2213067875667836 45.15800522627524 0 0 0
694 1 -0.004708189747173229 2.9242610916005076 4.111673080517685 46.50547295226721 0 0 0
695 3 0.2108543257746005 3.406488237382889 3.1783236231219796 46.636773100225064 0 0 0
696 2 -0.1442368184717027 -0.3684814488494501 4.986440978328285 46.51127754022906 1 0 0
697 1 0.1146311769180339 2.1682125279915154 4.137862981663915 47.960161437942475 0 0 0
698 2 -0.1478028557195823 1.431760595467519 5.28324517092352 48.07279533380551 0 0 0
699 2 -0.1436625985766324 1.3427950148232997 3.111843357947291 48.00345909883157 0 0 0
700 1 -0.1479908802764575 3.0101219515452455 4.0869334718529045 49.23938227859006 0 0 0
701 3 0.1979101696570585 3.696901843436054 3.2434013946816895 49.1875862649011 0 0 0
702 3 0.1950501846980258 -0.7222315960543337 4.871499733540163 49.23971812727258 1 0 0
127 1 0.07610646548774178 0.04172547357505785 -0.10476084304252087 50.557672117633146 0 0 0
128 2 -0.1486077701513756 -0.6712924952670978 1.0511452614220511 50.538860051659526 0 0 0
129 2 -0.1528796649755375 3.5653040653513326 -1.0770979735412776 50.52629320060294 -1 0 0
130 1 -0.1466535439768889 0.737579348912732 -0.13797997313203592 52.00955624798147 0 0 0
131 3 0.1950995327119877 1.3319548394604888 -0.9975716272940378 51.94367649832531 0 0 0
132 3 0.1964973420711149 1.4383506253725722 0.6983602712225778 52.063012279180924 0 0 0
133 1 0.1143604402944342 -0.03808933349461352 -0.2033753648200225 53.32053409939262 0 0 0
134 2 -0.1443153514581305 3.4959530516455937 0.837986877226375 53.343073842665824 -1 0 0
135 2 -0.1465772894170579 3.684085894021546 -1.3424386232677565 53.23856656058567 -1 0 0
136 1 -0.003383562990214471 0.798964766035293 -0.16906296604053517 54.721907134106154 0 0 0
137 2 -0.1425316324187018 1.7104320255398182 -1.269130098075295 54.648447569563004 0 0 0
138 3 0.2074133306315964 1.339726041094338 0.7762203481586756 54.6393132235199 0 0 0
139 1 0.1181348679018451 0.04790524341942526 -0.1866779729331436 56.10981264400539 0 0 0
140 2 -0.1445355659307789 3.5085979743418827 0.8266566734762795 56.12920913463916 -1 0 0
141 2 -0.1433143623444214 -0.6791916145396341 -1.4599759737851807 56.18257219117802 0 0 0
142 1 -0.146959555609337 0.8031265454459329 0.041115861083466765 57.40053848323362 0 0 0
143 3 0.2002983628879295 1.618016564628928 -0.6420189197723514 57.428285244390935 0 0 0
144 3 0.1957078808514476 1.21150258925167 1.0403466873972946 57.38990464236804 0 0 0
703 1 0.08208893531167533 2.2281329245720607 4.044969684600054 50.57427379046819 0 0 0
704 2 -0.1530137220058522 1.3089767896548992 5.131329708271214 50.65261371916526 0 0 0
705 2 -0.1485904479111385 1.4215062271685173 2.9119623951605513 50.5631267587163 0 0 0
706 1 -0.1492169672031883 3.0034994189222872 4.023218783264471 51.95523735807259 0 0 0
707 3 0.2035403071298353 3.668404443753018 3.171801612274982 51.95523889820808 0 0 0
708 3 0.1942513284499057 3.5551422653007645 4.904561964949772 52.02359079285069 0 0 0
709 1 0.1169826200037385 2.261421965933947 3.9329917047246408 53.28599841121664 0 0 0
710 2 -0.1457164784234311 1.2937852543771848 4.890909111693063 53.27018318564276 0 0 0
711 2 -0.1431489740594525 1.62660873743146 2.7035352927713774 53.2315507072028 0 0 0
712 1 0.001954601110153265 2.996665949697142 4.033373853521097 54.712233761795886 0 0 0
713 2 -0.140539189234513 -0.27097903580713467 3.098922976839421 54.667944444780574 1 0 0
714 3 0.2102265362599708 3.355160159892149 5.030397005419853 54.69626075514171 0 0 0
715 1 0.1184941460806235 2.242440628597258 3.8554733721707155 56.10353514996877 0 0 0
716 2 -0.1426121759178925 1.130448268140695 4.792391633746459 56.100199039962185 0 0 0
717 2 -0.1444172820824133 1.686818283875151 2.60700606306348 56.22837082998799 0 0 0
718 1 -0.1460882102725946 2.9897441843605943 4.0075170851774855 57.45380363899591 0 0 0
719 3 0.1995479508863502 3.6660836214370915 3.165922231764549 57.37130074381534 0 0 0
720 3 0.2006727178473475 3.4993344836294886 4.931573619325656 57.40539212674069 0 0 0
145 1 0.07884186966897692 -0.01822433069188567 -0.04077161810773289 58.80687500964727 0 0 0
146 2 -0.1524759231802886 3.622038835788751 1.0367971087160819 58.899010885398624 -1 0 0
147 2 -0.149957631523959 3.5589600501044085 -1.1587297310460376 58.76507016187051 -1 0 0
148 1 -0.1580412105824392 0.7637982904591176 -0.11929898002765249 60.128240538430234 0 0 0
149 3 0.1906238707332258 1.3709731889275867 -0.9754856418627229 60.07383392184451 0 0 0
150 3 0.1856662290555021 1.4377607776323624 0.7268837190558868 60.19127142796839 0 0 0
151 1 0.08252247151102687 -0.08353464679342804 -0.14881275424614837 61.476172561063905 0 0 0
152 2 -0.1515783412888183 3.482525144713774 0.8757785242960954 61.57044551891386 -1 0 0
153 2 -0.1496304135775337 3.5671795695044803 -1.291110918512183 61.418028834748014 -1 0 0
154 1 -0.1514785919915776 0.7307592022360663 -0.22221089588826404 62.777569785376926 0 0 0
155 3 0.1947435826524543 1.2016984194144003 -1.1431738023329805 62.77719081230039 0 0 0
156 3 0.1889529447081985 1.4099136472091223 0.6282665612062943 62.68912024563245 0 0 0
157 1 0.08268030274961846 -0.03062345683841894 -0.1674120714377394 64.20227040959824 0 0 0
158 2 -0.1515927167526459 3.5810910610384576 0.9091371324416531 64.128926788279 -1 0 0
159 2 -0.1489143448069705 3.6076038874446716 -1.3074825985653407 64.23233172851943 -1 0 0
160 1 -0.1561882093416753 0.759320585808225 -0.13120524536266354 65.53724445388826 0 0 0
161 3 0.1910244328704813 1.4847257550741912 -0.894485811291269 65.51096215041966 0 0 0
162 3 0.1836279536757734 1.3930283911749606 0.7245829751087598 65.47763892323502 0 0 0
721 1 0.07995545802886206 2.183672837015565 3.9395119381648582 58.81409733811441 0 0 0
722 2 -0.1495115583039222 1.3322519149452443 5.061635239798685 58.85650326165181 0 0 0
723 2 -0.1521410857628261 1.427086270232814 2.782765936146853 58.68971963045115 0 0 0
724 1 -0.1583124197817331 3.020188807315229 3.9047513834620506 60.10751517083405 0 0 0
725 3 0.1875768303156165 3.614703619423226 3.0543144490434244 60.023492921337834 0 0 0
726 3 0.1894275952475823 -0.7269601048322487 4.737235365577583 60.091174391458324 1 0 0
727 1 0.08813694035805497 2.1661201923255122 3.8759543403984242 61.46448777614181 0 0 0
728 2 -0.1499365199511871 1.3317049355047534 5.0063068811839635 61.49477465078995 0 0 0
729 2 -0.1519170746280904 1.3435712430909916 2.7859449015699376 61.418591374007505 0 0 0
730 1 -0.148903636149917 2.950872281974956 3.8483087446484188 62.82817291185026 0 0 0
731 3 0.188106553330307 3.6255514615458493 2.9587327769792573 62.83324262129625 0 0 0
732 3 0.1908037387800725 3.5825008999459342 4.6736471698083175 62.88777581302125 0 0 0
733 1 0.08101705187877228 2.174084659976909 3.8443055828738553 64.1528716815375 0 0 0
734 2 -0.14970812963826 1.3053885862639727 4.932117746643547 64.09708857147406 0 0 0
735 2 -0.1521957777010317 1.3489270661140789 2.7271783936684963 64.1280122600707 0 0 0
736 1 -0.1559045521569744 2.9959336964531005 3.870831850161353 65.50963550297857 0 0 0
737 3 0.1852679594386044 3.547260193424239 2.95493038589521 65.56300020302747 0 0 0
738 3 0.1891017225137329 -0.6703716143451413 4.691117090184245 65.4627985196813 1 0 0
163 1 0.07907067049853686 -0.004280125781634725 -0.037299843089608764 66.89508521779887 0 0 0
164 2 -0.1524529796156618 3.6401526936260202 1.0821374721527208 66.82749346746681 -1 0 0
165 2 -0.1482354026800746 3.5711549502518523 -1.1498959689076245 66.92469453500782 -1 0 0
166 1 -0.1425472997385331 0.7421688672459636 0.07408705117129033 68.25143012141042 0 0 0
167 3 0.205072972029782 1.4874331397404306 -0.6956769955352096 68.1848549848552 0 0 0
168 3 0.1950356775449945 1.1244233230919551 1.1145853914785508 68.27383941344787 0 0 0
169 1 0.1257562968525956 -0.015146516339062721 -0.16223489806125402 69.57247051073172 0 0 0
170 2 -0.1450737194347554 3.36843912380016 0.7300543958165617 69.55562679729148 -1 0 0
171 2 -0.142132118555395 -0.5382696000426277 -1.427174580977434 69.44632415065561 0 0 0
172 1 -0.00550412402104274 0.7612366873868475 -0.08547402570690332 70.96766437549755 0 0 0
173 2 -0.1412491557864849 1.787142364198738 -1.041364157457372 71.00051004038633 0 0 0
174 3 0.2057094724803568 1.264302584353468 0.8411510199147978 71.00172800825462 0 0 0
175 1 0.1124476280102393 -0.058953363197102426 -0.12503879671318652 72.34265871660877 0 0 0