LAMMPS data file via write_data, version 2 Aug 2023, timestep = 0, units = real

576 atoms
3 atom types

-2.7425593570924307 3.5815593570924213 xlo xhi
-3.1647986647244206 3.1647986647244206 ylo yhi
10.489429569673293 236.20217243032604 zlo zhi
-0.022580448079208976 -0.0033580598241885824 -0.03467979158708408 xy xz yz

Masses

1 12.0107
2 18.998404
3 1.00794

Atoms # charge

1 1 0.08795915973874997 0.7219775850535575 0.09955058646593651 10.899505435367109 0 0 0
18 3 0.1776789405900463 1.6452786614066546 0.3647287751019288 17.104897593884758 0 0 0
3 2 -0.1272955117267915 0.0020771670812123055 -0.6029442232224795 11.86902072181923 0 0 0
4 1 -0.2017908421857295 1.8185981501466286 0.9424839601569746 11.611889677722106 0 0 0
5 3 0.1771922092300926 2.6585673381864336 0.3244248635978306 11.825895935697874 0 0 0
6 3 0.1876627360389769 2.181227562381713 1.6712623102879576 10.925240898986713 0 0 0
7 1 0.1100007250624494 1.3961515606751234 1.6329023315840345 12.943098778305936 0 0 0
8 2 -0.1271341476586567 2.2310937881063535 2.730514660740531 13.190187728348615 0 0 0
9 2 -0.1246608669193102 0.09785805425687677 2.1341130446183563 12.82324300842041 0 0 0
10 1 -0.189822405570522 1.4986856872701089 0.614360086332479 14.135300273358666 0 0 0
11 3 0.1854170731324105 1.4278362858259652 -0.4003534164692626 13.800434681268422 0 0 0
12 3 0.1833780262562308 2.4860984692540646 0.6847148205072764 14.532052896715033 0 0 0
13 1 0.1131391039622099 0.5388733239151877 0.833221648918328 15.334596286542837 0 0 0
14 2 -0.1265339176384127 0.6655944086339978 2.158702986006066 15.755034596823917 0 0 0
15 2 -0.1237579884500837 -0.796516588399315 0.6389186330655705 14.929852847915278 0 0 0
16 1 -0.2047384458467185 0.8872723814291854 -0.1216404703639471 16.528067570928513 0 0 0
17 3 0.1772360939384199 1.3281331380306658 -1.0179795440338437 16.11989197678536 0 0 0
21 2 -0.1240334810252693 -1.1027160926105453 -1.4161307764510274 17.00002931583945 0 0 0
38 2 -0.1198001532465884 -0.8989272584894872 0.5427829745942665 24.419744700247797 0 0 0
20 2 -0.1227708102039735 -0.9145938895075538 0.6097463069260929 17.987383470439287 0 0 0
36 3 0.1839476377025717 1.265692303781504 -0.8530519484121211 23.76640259071982 0 0 0
22 1 -0.1918869183042138 0.47387245919932575 -1.1866555231618754 18.81841372121684 0 0 0
23 3 0.1925867402643157 0.9633326762141845 -2.0953195633008344 18.47924835309903 0 0 0
24 3 0.1805740597824318 1.2321784596761431 -0.5206968587332175 19.1396335242491 0 0 0
25 1 0.1267980182850003 -0.3582309717056096 -1.448943916639788 20.10105584414309 0 0 0
26 2 -0.1189953352112237 -1.3944207786537712 -0.5032309797962089 20.19106585927736 0 0 0
27 2 -0.1164062558268557 -0.9493651736829745 -2.7028309289969346 19.97811731963569 0 0 0
28 1 -0.06823301595108064 0.4733358372600751 -1.39038791500404 21.43325654213894 0 0 0
29 2 -0.1186611589170055 1.7937687663754214 -2.062172409946963 21.280820008437708 0 0 0
30 3 0.1908794513736688 0.8358455320346954 -0.39620745802067114 21.567398344436846 0 0 0
31 1 0.1323781286412475 -0.28591779885149515 -1.8596432530859917 22.736395495451973 0 0 0
32 2 -0.1180334513760936 -1.5722108924275955 -1.3359118919973163 22.769365552365183 0 0 0
33 2 -0.1158455117618105 -0.46767597316935605 3.080876616379843 22.696035303670826 0 -1 0
34 1 -0.1915650028894132 0.42339340993892227 -1.4336647227693993 24.04644629890501 0 0 0
19 1 0.1077022441862781 -0.1996624428967415 -0.5231596716375124 17.573323579665473 0 0 0
35 3 0.2020254072613941 0.8076017455589377 -2.2940881644451725 24.540825077307332 0 0 0
37 1 0.1151133317673161 -0.35367135103375436 -0.5527061362028896 25.087589476191773 0 0 0
56 2 -0.1220080308256905 -1.138001858397572 0.41758634747571133 31.415243366752314 0 0 0
39 2 -0.1190032157990924 -1.4074421066739335 -1.2862762970926127 25.600319524281204 0 0 0
40 1 -0.188267756376796 0.46561842357658767 -0.015216130963687569 26.300725645794852 0 0 0
41 3 0.1967295059005395 0.5586871211386764 -0.7900876099386376 27.027151517213966 0 0 0
42 3 0.1943810031729801 1.4389941516758769 0.230857847384355 25.97243275161152 0 0 0
43 1 0.1107900606153918 -0.04791103391168816 1.2396074081707518 27.027324665780746 0 0 0
44 2 -0.1246107996434084 0.36072013900335165 2.3761952640885475 26.322602860532342 0 0 0
45 2 -0.1196105316062767 -1.4354288804061752 1.2284734068109913 27.03377524610567 0 0 0
46 1 -0.04917243258549345 0.4949527169483936 1.213092941887501 28.52769264926448 0 0 0
47 3 0.2008411163070669 0.08075030243820924 0.3119411884321597 28.916482829910834 0 0 0
48 2 -0.1197539574065902 1.9561085739204915 0.9467775825174121 28.611856397225885 0 0 0
49 1 0.1144413110816681 0.09602698633184081 2.3833483579556916 29.47445439709687 0 0 0
50 2 -0.1219244352452532 0.7377466052793009 -2.7674571911973 29.032163196453162 0 1 0
51 2 -0.118115980110966 -1.2742320707222097 2.5975824569339956 29.414785567801985 0 0 0
52 1 -0.1851975405805749 0.483824887658193 2.136210726494303 30.964156506957842 0 0 0
53 3 0.1975198385492449 1.5227978756463139 2.327002880837984 31.05852662137324 0 0 0
57 2 -0.1254700497705621 1.043372589917392 -0.17419269218527322 31.22407668028091 0 0 0
54 3 0.1947303247002117 0.025169236631009007 2.8726984341837607 31.561520132526297 0 0 0
70 1 -0.1894232689656249 0.5776616191334258 -0.981460958358285 37.88053210579041 0 0 0
71 3 0.1923500552692753 1.594133600591261 -1.293628910011658 38.06249966376395 0 0 0
72 3 0.1856829076908815 0.617486751003439 0.08542836554706756 37.88442805692903 0 0 0
58 1 -0.1888098442206934 0.2874855104772003 0.9442955425703667 33.25929705638287 0 0 0
59 3 0.1913044823166849 1.3071645189457608 1.1854992816324863 33.45077008692443 0 0 0
60 3 0.1869529320978968 -0.27008163556807485 1.8054147273970793 33.58020931002361 0 0 0
61 1 0.1150785519976617 -0.17419013313402276 -0.2786928905917123 34.07279296851897 0 0 0
62 2 -0.1234057533464219 -1.5849442652431576 -0.2777895142373148 34.183857786179786 0 0 0
63 2 -0.1277267908354064 0.2134885730325733 -1.4766182572777384 33.426568053212954 0 0 0
64 1 -0.07395849007937033 0.5123872213955862 -0.17867853769095143 35.48449469802398 0 0 0
65 2 -0.1239830131497546 1.9568577375837521 -0.048618681354707594 35.31229068954776 0 0 0
66 3 0.1819693780095816 0.15747416354477295 0.7341886153402499 35.93273002349418 0 0 0
67 1 0.1146619890147276 0.2123792891813654 -1.4060728526013226 36.46999110834015 0 0 0
68 2 -0.1234244908827146 -1.148333891370735 -1.818234106300123 36.390978533072854 0 0 0
69 2 -0.1262364635432272 1.0257356242899798 -2.502033722416399 36.15981131290652 0 0 0
55 1 0.08909002837532398 0.1633669846933663 0.8067875835317269 31.701779993061017 0 0 0
73 1 0.1099559586299118 -0.2737532198096839 -1.6806997515066828 39.017557487800104 0 0 0
74 2 -0.1213043070251905 -1.6169161953517368 -1.3356572069003831 38.93741999507165 0 0 0
75 2 -0.1249847794619694 -0.1916451474874763 -3.070653560250335 38.84587520437774 0 0 0
76 1 -0.1896009373529246 0.25784295490692344 -1.3138405928132344 40.42872803887967 0 0 0
77 3 0.1999745217452268 0.36148382973922555 -2.2589531630718187 40.902411047490965 0 0 0
78 3 0.1906612129643768 1.2319109786948896 -0.9050407688721038 40.3561640318543 0 0 0
79 1 0.1199808435798753 -0.5902353111751268 -0.4680080497438608 41.389174949590874 0 0 0
80 2 -0.120422566443007 -0.9631370522172793 0.7455840209480917 40.783274592288116 0 0 0
81 2 -0.1186118745807798 -1.7531172147740994 -1.1783347725679754 41.633878141926 0 0 0
82 1 -0.07077451742279436 0.21460339269943862 -0.23642471556646338 42.76205289874281 0 0 0
83 3 0.1835490756382556 0.32819763493364107 -1.2044132770512748 43.19273295297702 0 0 0
84 2 -0.1209198547563536 1.596015363151626 0.22551505957693863 42.51389870918187 0 0 0
85 1 0.1240735808925937 -0.48754358435382317 0.7009402514958749 43.79682187257888 0 0 0
86 2 -0.1225807332468441 -0.17023860452503747 2.042144743272784 43.48108692262067 0 0 0
87 2 -0.120656881708876 -1.8866836144024632 0.5514007037435329 43.70744004925195 0 0 0
88 1 -0.2001019105459561 -0.02559136055205391 0.41836650952063614 45.24956110730321 0 0 0
89 3 0.1779701100385932 0.1813316239744056 -0.6219185167885484 45.35539679968116 0 0 0
90 3 0.1835278544801961 0.9063640575013854 0.9296530394697591 45.402379240865585 0 0 0
91 1 0.1019264400171462 -0.9681797654257678 0.8215290152466732 46.42200991534902 0 0 0
92 2 -0.1256275246024125 -1.4663740339150566 2.1155785273257965 46.199227909691196 0 0 0
93 2 -0.1248180912839015 -2.048733510806802 -0.06068108968566266 46.490168764538026 0 0 0
94 1 -0.1933361751044108 -0.15852653198270428 0.7856875213205976 47.76575622630598 0 0 0
95 3 0.185022648269859 0.6448840312646169 0.08806411335729569 47.672114232343525 0 0 0
96 3 0.1842772631583178 0.2844225848077633 1.7494278667544307 47.84062725568785 0 0 0
97 1 0.1218843369954816 -0.8618319072489273 0.44444133200921465 49.09131452387235 0 0 0
98 2 -0.1213607268489418 -2.0308390016369486 1.1906771263139522 49.183333066992944 0 0 0
99 2 -0.1206571205607731 -1.2018159527161376 -0.9257470505367307 49.0814903283366 0 0 0
100 1 -0.0735762387810136 0.0662589374943523 0.7929897098692793 50.329484281758035 0 0 0
101 2 -0.1229204259233396 1.4736782547733784 0.3195387992838765 50.070163674466436 0 0 0
102 3 0.1839675815956852 0.07453642210770939 1.8803867973851887 50.399560653379986 0 0 0
103 1 0.1176804446326745 -0.4176126417960342 0.2687640899226711 51.71320824820981 0 0 0
104 2 -0.1242387501491409 -1.784917378390305 0.5423247199418384 51.9187978721253 0 0 0
105 2 -0.1246318571044219 -0.2299794251976608 -1.1101801007696759 51.79481979507697 0 0 0
107 3 0.1898109661335649 1.4735647195878205 0.9423343125086161 52.44931712172528 0 0 0
106 1 -0.1916032833228235 0.4645851312123339 0.9704950643507502 52.79069908250963 0 0 0
109 1 0.07713350519817216 0.4065817011753827 0.5075440179773834 54.26331211313333 0 0 0
110 2 -0.1288897287511374 -0.9196380710775294 0.49422943020258714 54.65491753376044 0 0 0
111 2 -0.1345552984925755 0.9153940381640284 -0.8017044791280292 54.381135768359414 0 0 0
112 1 -0.1953304115431688 1.2241738416362495 1.5031569747643516 55.189092868878824 0 0 0
113 3 0.1894655784092765 2.240011552117093 1.3605637828364507 54.93372690793902 0 0 0
114 3 0.179587405569553 1.0189416764467318 2.5292419332397706 54.95993925137722 0 0 0
115 1 0.09952858777242024 1.1389376481768472 1.3666452172576502 56.706717617099514 0 0 0
116 2 -0.1278120349829553 2.0885298984710503 2.2385590469152 57.27176689268621 0 0 0
117 2 -0.1263178815779266 -0.11933012592488978 1.7957736844106487 57.1423648015761 0 0 0
118 1 -0.04386757256576695 1.4062342834163934 -0.13366653519672322 57.12868604591911 0 0 0
119 3 0.1853131880905355 0.7970233481796258 -0.8113998257690413 56.513397195212775 0 0 0
120 2 -0.1243375824259582 2.787443476255102 -0.47553420341412433 56.88699132764153 0 0 0
121 1 0.09293963246164741 1.0420921982961149 -0.35291514070283947 58.66586370076709 0 0 0
122 2 -0.1225759048613404 1.8891753557137405 0.3756522323635241 59.52315213950218 0 0 0
123 2 -0.1218099485865512 -0.28307104878521017 0.01716531156173362 58.927941329179106 0 0 0
124 1 -0.1748702281142589 1.1996209420231296 -1.835100659360504 58.97754466646278 0 0 0
125 3 0.1988973434002815 0.7228058534264181 -2.330595370426356 58.157711585302145 0 0 0
126 3 0.2106386916058329 2.2562390141714377 -2.0496268129982997 58.945338618133206 0 0 0
108 3 0.1770466392006788 0.20371899776383362 1.9984982944640617 52.81430037593168 0 0 0
127 1 0.1219152821458995 0.594062418789711 -2.3913659942467547 60.322065321691454 0 0 0
128 2 -0.1170368942820059 -0.7440037957308787 -2.7418176902802696 60.11282496154147 0 0 0
129 2 -0.1217423730977727 1.2526865879820135 2.767428689429913 60.68525387233495 0 -1 0
130 1 -0.17476758508944 0.6768259902238101 -1.3510292046866252 61.48926061730385 0 0 0
131 3 0.2002163081105054 1.7040334436597173 -1.192016656110587 61.789376858821015 0 0 0
132 3 0.2016208805439884 0.29958816385568676 -0.41301889757916355 61.107956817005956 0 0 0
133 1 0.1193812106023147 -0.06489696971597159 -1.6735292487138906 62.78940095185934 0 0 0
134 2 -0.1181678795916571 -1.445298330723294 -1.6150273486038322 62.564908495182536 0 0 0
135 2 -0.1188079151725985 0.24434327091275287 -2.975451799999294 63.2069830844918 0 0 0
136 1 -0.07609044789903788 0.40386148106785535 -0.6217344528813489 63.8815121925366 0 0 0
137 2 -0.1215599124448734 1.7508481879553845 -0.9075571316493765 64.29727768383728 0 0 0
138 3 0.1894613012914672 0.4741608802037951 0.2959933034413993 63.342183798173835 0 0 0
139 1 0.1286616244048923 -0.5097358904962861 -0.43216171459593866 65.181907904245 0 0 0
140 2 -0.1175275014786528 -1.610712124852917 0.3837095177136285 64.89419794231574 0 0 0
141 2 -0.1184007544513087 -0.9784326783185653 -1.6799116718078433 65.64947250519624 0 0 0
142 1 -0.1871191608731306 0.3179251586469176 0.23938510045361516 66.26602127683248 0 0 0
143 3 0.1904673755319762 1.092312852799393 -0.42603647541007783 66.5876253199273 0 0 0
144 3 0.2021478906850973 0.7585215322534458 1.1237757434251563 65.83351779876824 0 0 0
145 1 0.1183336021221173 -0.4968512338491977 0.65072516394447 67.54988401739006 0 0 0
146 2 -0.1190454468458741 -0.9188450611635366 1.9855768499960762 67.41795554263489 0 0 0
147 2 -0.1232043888977378 -1.6186334994238476 -0.14906511029233105 67.67146231776287 0 0 0
148 1 -0.2073426890033732 0.3734153389268031 0.46486961736127475 68.81698269780944 0 0 0
149 3 0.181006377016609 0.3556953721821756 -0.5535987337154022 69.15864296764558 0 0 0
150 3 0.1783719198016732 1.3836431227946284 0.6526997420349785 68.52931762003507 0 0 0
151 1 0.1107118009798175 -0.0008397917596107973 1.3450081951032526 70.05585776947072 0 0 0
152 2 -0.1264815341640116 0.4562715611404009 2.6448408305710647 69.86068822734654 0 0 0
153 2 -0.1252715070226609 -1.3802111503198902 1.385797357356867 70.25806016042237 0 0 0
154 1 -0.2027735284908003 0.6641994344128284 0.7053654870616812 71.30639711765893 0 0 0
155 3 0.1858169390338817 0.07613656091948018 -0.15000469548278383 71.56264698843259 0 0 0
156 3 0.1745626611056409 1.633381304494541 0.3803028550104406 71.00011115448977 0 0 0
157 1 0.1068407765435441 0.8116159176157449 1.5894844376908717 72.57545945480656 0 0 0
158 2 -0.1280084886260404 1.8052325403600862 2.533862885625795 72.33174073617013 0 0 0
159 2 -0.1245939708874596 -0.3857559497169998 2.28608982000073 72.78910526109667 0 0 0
160 1 -0.2052863750097497 1.1946185358614994 0.7661749550340509 73.8564199034121 0 0 0
161 3 0.1726472531733816 1.6028454826288816 -0.17061863618685358 73.5583109991255 0 0 0
163 1 0.1042243285428941 0.08999449365651557 0.5288720160379623 74.924217331812 0 0 0
164 2 -0.1205030472652149 -0.3237292202409674 1.7735118534131002 75.40643470329724 0 0 0
165 2 -0.1248931095214195 -1.0152229684951115 -0.08414661494176379 74.34151045780862 0 0 0
166 1 -0.1904679612436879 0.5718944110958475 -0.342848220732177 76.13864921857056 0 0 0
167 3 0.1935682683579932 0.923765592326304 -1.289152529381446 75.79047247979736 0 0 0
168 3 0.1855386917172013 1.419866323403872 0.20504513848435257 76.50050608280614 0 0 0
169 1 0.1247980474646992 -0.3992897995921596 -0.6676836100887962 77.28438145243963 0 0 0
170 2 -0.1176233675462106 -1.172612125500787 0.46048415900735584 77.55097709559618 0 0 0
171 2 -0.1175426544194036 -1.2807345789955298 -1.684512486621916 76.8770848061616 0 0 0
172 1 -0.06690262381286068 0.3815110609026213 -1.1328114192668974 78.59897380591318 0 0 0
173 2 -0.1180420268471836 1.3125936837317824 -2.2274168903395295 78.27029520005009 0 0 0
174 3 0.1805935385922943 0.9967245602524586 -0.3125977332259984 78.89753938775185 0 0 0
175 1 0.1293201841104487 -0.4734772839891366 -1.5091086696045088 79.8681469180808 0 0 0
176 2 -0.119949279578158 -1.7466500544246828 -0.9203356333949073 79.82055217141308 0 0 0
177 2 -0.116984856795917 -0.6490360347451372 -2.910012506122366 79.94506595401495 0 0 0
162 3 0.1908954522137399 1.9993213263938823 1.2647064158213324 74.35940834753583 0 0 0
180 3 0.1768037537975971 0.9392586438657538 -0.23292702029454215 80.87104714946186 0 0 0
181 1 0.1187800672518126 -0.559637225401981 -0.4584511805554876 82.3223265054437 0 0 0
182 2 -0.1206958088762632 -1.287478647748798 0.6456466863257324 81.8776267525367 0 0 0
183 2 -0.1186387373656746 -1.461455741112356 -1.4404516223241792 82.75208909914781 0 0 0
184 1 -0.1918554518323946 0.3890075141898075 -0.03861384211247598 83.50181980838724 0 0 0
185 3 0.1999813768621758 0.5905053505489075 -0.9083410984484419 84.08556344860992 0 0 0
186 3 0.1903230084940098 1.3658410293533385 0.23710240873457122 83.1438697149041 0 0 0
187 1 0.1225320835803406 -0.16007395383067902 1.1011760892594538 84.38900356638182 0 0 0
188 2 -0.1214729984403336 0.14763208691136942 2.340798949586307 83.79994729216642 0 0 0
189 2 -0.1175203085698303 -1.5649756351262167 1.001302418056552 84.47011207726013 0 0 0
190 1 -0.04210222563255166 0.46885209020145213 1.05614510056167 85.82669240635384 0 0 0
191 3 0.2061458602683927 0.19712899118800475 0.12030760020395848 86.27148309555838 0 0 0
192 2 -0.1172073730186747 1.9465738388718754 0.9618729145803675 85.73737360872799 0 0 0
193 1 0.1247852877730194 0.01967235174373494 2.2384763732397985 86.79730312112848 0 0 0
194 2 -0.1185488576732743 0.625834846710676 -2.8598479226489975 86.41897797682067 0 1 0
195 2 -0.1148879336140611 -1.3611957107168182 2.4172670811745736 86.75880957820834 0 0 0
178 1 -0.2019416184186392 0.2635439275039775 -1.0151119783980969 81.13379614261348 0 0 0
179 3 0.1946477650209348 0.8426346128045785 -1.8146469781571444 81.52232791090135 0 0 0
199 1 0.09004093055691284 0.3448892534146921 0.41415358445853556 88.72401063340445 0 0 0
200 2 -0.1216410501155132 -0.8995116825524263 -0.12184111684657983 88.3514886932711 0 0 0
198 3 0.1996836608752706 -0.08629396309583637 2.5320957197862795 88.91930824431908 0 0 0
202 1 -0.1851249194630516 0.5645703096960641 0.31416791296208046 90.2810308290343 0 0 0
203 3 0.1926713710276079 1.5048199734719083 0.7695656003003863 90.52206501746309 0 0 0
204 3 0.1839618526573981 -0.1547626676241629 0.8524986396234846 90.8580995482391 0 0 0
205 1 0.0969783168335502 0.5877337073525961 -1.103276295193142 90.83772403481949 0 0 0
206 2 -0.1277181376514451 -0.5882888163840474 -1.779440921865646 90.48131512916454 0 0 0
207 2 -0.1279036708029465 1.6716869499986147 -1.809169691595243 90.31588808459996 0 0 0
208 1 -0.06110256563420567 0.7353074181545471 -0.8930484382255246 92.42173104343634 0 0 0
209 2 -0.1254405167443778 1.9486789477843272 -0.12865118776615292 92.71243384656194 0 0 0
210 3 0.1921188734479294 -0.0970768623372531 -0.29819502895436756 92.72376876647783 0 0 0
211 1 0.09868522388937634 0.6916283249586876 -2.1850907335684084 93.31255411769844 0 0 0
212 2 -0.1252938978944875 -0.4937192717492018 -2.9052503960256564 93.09907719490492 0 0 0
213 2 -0.1240276695048033 1.78720562030025 -3.044696339341702 93.012531821624 0 0 0
214 1 -0.1830686903556831 0.7632370099885311 -1.765680226507995 94.79482150350633 0 0 0
197 3 0.201819957989764 1.463598464927959 2.1807667065331664 88.29473106310681 0 0 0
196 1 -0.1845720908865584 0.44230759240318474 1.8950746145294142 88.23497713029236 0 0 0
218 2 -0.1252173596050503 -0.49178390019634133 0.2549102687783269 94.85091968014976 0 0 0
216 3 0.1974777685353436 1.7264907313824351 -1.2714743050044395 94.91149905170984 0 0 0
201 2 -0.1243699129115065 1.3353899663869933 -0.34667938063298775 88.10508354655113 0 0 0
217 1 0.09471007842912987 -0.3286462504636085 -0.9330104474244063 95.5345067662815 0 0 0
234 3 0.1932032813456173 0.0056245161534609345 2.720800388745249 101.92983291627004 0 0 0
219 2 -0.1203341232456389 -1.5596971207918764 -1.6224349595296954 95.47421487644166 0 0 0
220 1 -0.1778787004310969 0.04881033166375959 -0.6040791623179942 97.04456698408734 0 0 0
221 3 0.1927065412736258 0.11448715476452609 -1.5153993927876046 97.60346454469011 0 0 0
222 3 0.1928058204192972 1.043320882341067 -0.2108189579368558 97.0266883694842 0 0 0
223 1 0.1121575397412973 -0.7288945894686187 0.3775543471818401 97.91705896955379 0 0 0
224 2 -0.1243781631753381 -0.7195671276274087 1.6407418692445708 97.31470213369926 0 0 0
225 2 -0.1223457629840901 -2.0630288866494126 -0.02869629927539119 97.99513294514857 0 0 0
226 1 -0.06984791862505092 -0.09579229389774024 0.4762387681999587 99.40398535706899 0 0 0
227 3 0.1909050320756945 -0.41362498954978344 -0.3645267788988158 99.9654775903889 0 0 0
228 2 -0.1269349766771065 1.3702129701698849 0.4053899180655782 99.36163790958389 0 0 0
229 1 0.1107992523564747 -0.5515101743608861 1.7670804393161879 100.15682659991772 0 0 0
230 2 -0.1280335215647353 0.06225756575505148 2.8909431502252954 99.5693296012669 0 0 0
231 2 -0.1239109589426739 -1.95258496633896 1.9438448478378305 100.07196310426177 0 0 0
232 1 -0.1971170298012267 -0.12171582579796203 1.7080582830802067 101.64418261323509 0 0 0
233 3 0.1781102987410554 0.8466464873695752 1.255270841565979 101.74034613419597 0 0 0
215 3 0.1996983548620024 0.7526565967199561 -2.71448108327978 95.2765403569359 0 0 0
237 2 -0.1274930155871853 -1.639954157487498 -0.1122805174121364 102.03714905240263 0 0 0
235 1 0.1042572535874778 -1.0499057797682403 0.9913384651013253 102.65553685622217 0 0 0
236 2 -0.1219225720934201 -2.0724741096631116 1.866025890995715 103.07684938738394 0 0 0
254 2 -0.1274033528072613 0.8950088606150617 0.9048998179848784 108.96204335749324 0 0 0
238 1 -0.1886754885844875 -0.1543399327314492 0.49338081559367186 103.86616406591544 0 0 0
239 3 0.1832963309945747 0.5744666425697122 -0.14676970259839006 103.45139723828267 0 0 0
240 3 0.1876043855588312 0.46185351303441147 1.2718900625475325 104.25540142004432 0 0 0
241 1 0.117931325857924 -0.8139292909988836 -0.2653292838153636 105.0156138622182 0 0 0
242 2 -0.1193083307426382 -1.9111383747495343 0.48361772149694193 105.43527639701597 0 0 0
243 2 -0.1224620693954027 -1.2899420381875382 -1.5047960049232127 104.54885334512528 0 0 0
244 1 -0.05666642982437568 0.17944257496504834 -0.4906981924944005 106.24226806651453 0 0 0
245 2 -0.1230531850248837 1.5249169149841237 -0.7358522586132712 105.7537835603892 0 0 0
246 3 0.2010339072135956 0.17819545861888608 0.4797814509628675 106.6856101724939 0 0 0
247 1 0.1154019896861994 -0.21816368318887225 -1.5573766439078287 107.35279842264264 0 0 0
248 2 -0.1211777734920145 -1.5764300094049242 -1.4287852101812284 107.68925702942545 0 0 0
249 2 -0.1215067240971996 -0.047399797817640366 -2.8669204385870484 106.86712291786752 0 0 0
250 1 -0.1893144803837148 0.6496141069461103 -1.4173178595075606 108.61148994324273 0 0 0
252 3 0.1957826075010555 1.6849787276493013 -1.3949204870794787 108.28210197746164 0 0 0
251 3 0.1929414014875716 0.5245684787338063 -2.316431543323683 109.1549391278895 0 0 0
253 1 0.09237958736228261 0.4487388020514973 -0.23113991703646786 109.61896586382899 0 0 0
270 3 0.1705975832017481 1.5624555005755671 -1.0346603872015012 115.34795920183554 0 0 0
255 2 -0.1249476539480644 -0.918590195847955 -0.0560272784736644 109.88667205391376 0 0 0
256 1 -0.1910538127988573 1.1975735072752225 -0.34802641100670373 110.98444461813192 0 0 0
257 3 0.176604004296057 1.412079710253059 -1.3873132711940361 111.19039227998506 0 0 0
258 3 0.1931433906676527 2.1339752625495376 0.15245808365204727 110.88774090212776 0 0 0
259 1 0.0999832795472832 0.49578587913180927 0.284714442766282 112.21826418230982 0 0 0
260 2 -0.1258449893049936 -0.2039140473523271 1.4396934885313364 111.81612558271863 0 0 0
261 2 -0.1300162639274826 -0.45411331152653434 -0.6198898537968818 112.68682554486094 0 0 0
262 1 -0.0699815389011807 1.472750464090836 0.6455731430419869 113.37915535703026 0 0 0
263 3 0.170173098011904 2.1248583228166793 -0.1925140018410687 113.49036201013485 0 0 0
264 2 -0.1254205472502339 2.3011925142049665 1.8061752684113763 113.01639999221945 0 0 0
265 1 0.1032883657989218 0.7224938344493834 0.8300028819042407 114.79763169149267 0 0 0
266 2 -0.1299370449305916 1.3996455442004394 1.7617783089713637 115.58957112043531 0 0 0
267 2 -0.1272403105612305 -0.5847354148329007 1.3191182712146645 114.60766979249794 0 0 0
268 1 -0.1917727845827268 0.6585099627360433 -0.5105954314233294 115.53351787126314 0 0 0
269 3 0.187918194310027 -0.10743009394256431 -1.0994568308457104 115.03935476813369 0 0 0
271 1 0.09325348909684888 0.4763381491058598 -0.532570743860739 117.10530066960419 0 0 0
272 2 -0.1254751423912985 1.5031276566233758 0.21360571745340673 117.72121242994635 0 0 0
273 2 -0.121191125003586 -0.7222198974827871 0.09721613865561896 117.40258911553049 0 0 0
274 1 -0.1926160907121833 0.46755646503095605 -1.9539586065574155 117.7509539982464 0 0 0
275 3 0.1966149615802659 0.010389492012305546 -2.6631530423213308 117.07842261295013 0 0 0
276 3 0.1967483614336319 1.4830273655815458 -2.29566786269381 117.86588610201437 0 0 0
277 1 0.1329824025528965 -0.14046221395683034 -2.101531910648471 119.15962021007167 0 0 0
278 2 -0.1154807997618648 -1.5028023202467913 -1.7440981741850692 119.15138576085253 0 0 0
279 2 -0.1134841561058083 -0.11774196623001476 2.8707095473938926 119.46134967531164 0 -1 0
280 1 -0.04971550262923305 0.6203550726581493 -1.2570424940200058 120.27162579122323 0 0 0
281 2 -0.1155528708256595 1.7510622201432011 -1.984423778373172 120.82983356482231 0 0 0
282 3 0.2036254997618444 1.046666246933205 -0.421694323862162 119.7768927949215 0 0 0
283 1 0.1357145941117155 -0.2742972001224291 -0.6394188457097245 121.43920540833928 0 0 0
284 2 -0.1126050860854007 -1.0279872215582662 0.4226441341521672 120.94502770805816 0 0 0
285 2 -0.1148393723237473 -1.1767257464143568 -1.5926349176514207 121.9274276250513 0 0 0
286 1 -0.1869327962217961 0.6212547391607757 -0.13720026396728136 122.57876258240877 0 0 0
287 3 0.1910469578720996 1.0245277898671774 -0.9962970450187849 123.06608433693343 0 0 0
288 3 0.1998345368864797 1.4765726146755074 0.34846579460253047 122.16275228906719 0 0 0
290 2 -0.1188115024245845 0.1513527183955632 2.1831528052071647 123.05075695952983 0 0 0
289 1 0.1228998557533962 0.04662664891168289 0.9058275831680929 123.60529329300155 0 0 0
305 3 0.174172555039468 0.9148400235296936 -0.05536988079124017 129.80943334454201 0 0 0
291 2 -0.1207105622600577 -1.3051000764115803 0.6561237823047144 123.8278550348862 0 0 0
292 1 -0.2098794847906231 0.8151825436356064 0.8294923182463907 124.95440695393958 0 0 0
293 3 0.1726099554916455 0.7593815578443297 -0.20523360952601122 125.2455119403705 0 0 0
294 3 0.1844591500259966 1.8613048087947521 1.0412181868858061 124.83051545734438 0 0 0
295 1 0.1101515189306985 0.28202063116299403 1.7563079685214333 126.09572939533093 0 0 0
296 2 -0.1288972156321478 0.8056431497591734 3.0509745382462103 125.94618204794739 0 0 0
297 2 -0.1258503858162315 -1.1100480106113089 1.8473910628092867 126.0352544433251 0 0 0
298 1 -0.2075525323625606 0.6864646207212992 1.156421389000628 127.47850662577477 0 0 0
299 3 0.1724678803030544 0.6942841407362574 0.10456408874319978 127.33833695802808 0 0 0
300 3 0.1794892037563985 1.6747845148043843 1.4401257363913613 127.76371973908049 0 0 0
301 1 0.1062328358633567 -0.2912676165461079 1.295148909441716 128.67763057545454 0 0 0
302 2 -0.1251631466763553 -0.6928775880472284 2.6195726561214707 128.80826581757123 0 0 0
303 2 -0.1280698622082498 -1.4260484918415317 0.528648330681917 128.38937366451236 0 0 0
304 1 -0.2059033398769466 0.33283034750852014 0.8101436647057079 130.03092452482304 0 0 0
307 1 0.1155208684343124 -0.6483915148318902 0.45582831448312966 131.17470951151685 0 0 0
308 2 -0.1206795240345137 -1.5876338138366606 1.467551462040678 131.35601425451182 0 0 0
309 2 -0.123276490824715 -1.3373266915461668 -0.7251118391652924 130.8549711939329 0 0 0
310 1 -0.1863210114927102 0.19023176163768696 0.2900643532414695 132.5052277596495 0 0 0
311 3 0.1890365132980639 1.129598910213308 -0.1294039236804041 132.21773101056644 0 0 0
312 3 0.1986003402431952 0.37641114218804184 1.2534055746657824 132.94620412629914 0 0 0
313 1 0.1271690094561459 -0.39717453013474335 -0.5208452554423517 133.64643652341616 0 0 0
314 2 -0.1192458780169326 -1.6479056938013967 0.02002210975134089 133.98806284158212 0 0 0
315 2 -0.1189764445097296 -0.59237173262806 -1.8353908129029572 133.2247387944292 0 0 0
316 1 -0.08042289915557746 0.6297207012799899 -0.4616673453486406 134.9004384809147 0 0 0
317 2 -0.1231202639922531 2.0238433255782398 -0.4823943743217791 134.47269600950136 0 0 0
318 3 0.1872342269341868 0.47908091766324423 0.4447072871454063 135.44097563300403 0 0 0
319 1 0.1233670524397488 0.32418891387694915 -1.6128815044654747 135.90300434221345 0 0 0
320 2 -0.1209137825275749 -1.062136510144627 -1.7125847166441825 136.15496294034077 0 0 0
321 2 -0.1213433056804983 0.8026176678934989 -2.859179002596982 135.45714450873282 0 0 0
322 1 -0.1884776912909752 1.1008067379356223 -1.16906514139416 137.16669553824153 0 0 0
323 3 0.1941106004398365 2.1254623257415752 -1.0836867780409136 136.9008615764245 0 0 0
306 3 0.1814617669685686 1.0407691137030675 1.528290555096424 130.40261405893636 0 0 0
325 1 0.1152532440219819 1.0978023114562507 -2.1523975575701977 138.36264642779182 0 0 0
326 2 -0.1187623421221235 -0.201810285828961 -2.445392290286033 138.71308258662583 0 0 0
327 2 -0.123208418329203 1.7089257975920895 2.969885030356232 137.98159035190653 0 -1 0
328 1 -0.1834389695234589 1.8260494590838854 -1.4874516325515386 139.5833806257213 0 0 0
329 3 0.2119625239560073 2.056434242901593 -2.304192924236963 140.21493003349832 0 0 0
330 3 0.1930741717873255 2.7502248050973814 -1.026602351492917 139.26013961384092 0 0 0
331 1 0.09896013580818167 1.0430248398705837 -0.4727119725667306 140.45853678125422 0 0 0
332 2 -0.1230708651169918 0.20251312652534637 0.28604022090018155 139.63781686789858 0 0 0
333 2 -0.122502696808662 0.22536223192782234 -1.1610286419698221 141.3592320143673 0 0 0
334 1 -0.06158310233426603 1.9913294097049303 0.46627675149592873 141.2767373535502 0 0 0
335 3 0.1859110450429992 2.577340007002943 -0.16332624720014044 141.902955162137 0 0 0
336 2 -0.120124181307829 2.9812942280996118 1.1233303774486965 140.38307889072408 0 0 0