LAMMPS data file via write_data, version 2 Aug 2023, timestep = 0, units = real

1152 atoms
3 atom types

-0.636 3.5869999999999997 xlo xhi
-1.9345 5.8035 ylo yhi
-0.647798 247.3394 zlo zhi

Masses

1 12.0107
2 18.998404
3 1.00794

Atoms # charge

1 1 0 0 0 0 0 0 0
2 2 0 3.4739999999999998 1.111 0 -1 0 0
3 2 0 3.4739999999999998 -1.111 0 -1 0 0
4 1 0 0.839 0 1.292 0 0 0
5 3 0 1.448 -0.904 1.292 0 0 0
6 3 0 1.448 0.904 1.292 0 0 0
7 1 0 0 0 2.583 0 0 0
8 2 0 3.4739999999999998 1.111 2.583 -1 0 0
9 2 0 3.4739999999999998 -1.111 2.583 -1 0 0
10 1 0 0.839 0 3.875 0 0 0
11 3 0 1.448 -0.904 3.875 0 0 0
12 3 0 1.448 0.904 3.875 0 0 0
13 1 0 0 0 5.166 0 0 0
14 2 0 3.4739999999999998 1.111 5.166 -1 0 0
15 2 0 3.4739999999999998 -1.111 5.166 -1 0 0
16 1 0 0.839 0 6.458 0 0 0
17 3 0 1.448 -0.904 6.458 0 0 0
18 3 0 1.448 0.904 6.458 0 0 0
577 1 0 2.112 3.869 0 0 0 0
578 2 0 1.363 4.98 0 0 0 0
579 2 0 1.363 2.758 0 0 0 0
580 1 0 2.951 3.869 1.292 0 0 0
581 3 0 3.56 2.965 1.292 0 0 0
582 3 0 3.56 4.773 1.292 0 0 0
583 1 0 2.112 3.869 2.583 0 0 0
584 2 0 1.363 4.98 2.583 0 0 0
585 2 0 1.363 2.758 2.583 0 0 0
586 1 0 2.951 3.869 3.875 0 0 0
587 3 0 3.56 2.965 3.875 0 0 0
588 3 0 3.56 4.773 3.875 0 0 0
589 1 0 2.112 3.869 5.166 0 0 0
590 2 0 1.363 4.98 5.166 0 0 0
591 2 0 1.363 2.758 5.166 0 0 0
592 1 0 2.951 3.869 6.458 0 0 0
593 3 0 3.56 2.965 6.458 0 0 0
594 3 0 3.56 4.773 6.458 0 0 0
19 1 0 0 0 7.749 0 0 0
20 2 0 3.4739999999999998 1.111 7.749 -1 0 0
21 2 0 3.4739999999999998 -1.111 7.749 -1 0 0
22 1 0 0.839 0 9.041 0 0 0
23 3 0 1.448 -0.904 9.041 0 0 0
24 3 0 1.448 0.904 9.041 0 0 0
25 1 0 0 0 10.332 0 0 0
26 2 0 3.4739999999999998 1.111 10.332 -1 0 0
27 2 0 3.4739999999999998 -1.111 10.332 -1 0 0
28 1 0 0.839 0 11.624 0 0 0
29 2 0 1.588 -1.111 11.624 0 0 0
30 3 0 1.448 0.904 11.624 0 0 0
31 1 0 0 0 12.916 0 0 0
32 2 0 3.4739999999999998 1.111 12.916 -1 0 0
33 2 0 3.4739999999999998 -1.111 12.916 -1 0 0
34 1 0 0.839 0 14.207 0 0 0
35 3 0 1.448 -0.904 14.207 0 0 0
36 3 0 1.448 0.904 14.207 0 0 0
595 1 0 2.112 3.869 7.749 0 0 0
596 2 0 1.363 4.98 7.749 0 0 0
597 2 0 1.363 2.758 7.749 0 0 0
598 1 0 2.951 3.869 9.041 0 0 0
599 3 0 3.56 2.965 9.041 0 0 0
600 3 0 3.56 4.773 9.041 0 0 0
601 1 0 2.112 3.869 10.332 0 0 0
602 2 0 1.363 4.98 10.332 0 0 0
603 2 0 1.363 2.758 10.332 0 0 0
604 1 0 2.951 3.869 11.624 0 0 0
605 2 0 -0.5229999999999997 2.758 11.624 1 0 0
606 3 0 3.56 4.773 11.624 0 0 0
607 1 0 2.112 3.869 12.916 0 0 0
608 2 0 1.363 4.98 12.916 0 0 0
609 2 0 1.363 2.758 12.916 0 0 0
610 1 0 2.951 3.869 14.207 0 0 0
611 3 0 3.56 2.965 14.207 0 0 0
612 3 0 3.56 4.773 14.207 0 0 0
37 1 0 0 0 15.499 0 0 0
38 2 0 3.4739999999999998 1.111 15.499 -1 0 0
39 2 0 3.4739999999999998 -1.111 15.499 -1 0 0
40 1 0 0.839 0 16.790001 0 0 0
41 3 0 1.448 -0.904 16.790001 0 0 0
42 3 0 1.448 0.904 16.790001 0 0 0
43 1 0 0 0 18.082001 0 0 0
44 2 0 3.4739999999999998 1.111 18.082001 -1 0 0
45 2 0 3.4739999999999998 -1.111 18.082001 -1 0 0
46 1 0 0.839 0 19.372999 0 0 0
47 3 0 1.448 -0.904 19.372999 0 0 0
48 2 0 1.588 1.111 19.372999 0 0 0
49 1 0 0 0 20.665001 0 0 0
50 2 0 3.4739999999999998 1.111 20.665001 -1 0 0
51 2 0 3.4739999999999998 -1.111 20.665001 -1 0 0
52 1 0 0.839 0 21.955999 0 0 0
53 3 0 1.448 -0.904 21.955999 0 0 0
54 3 0 1.448 0.904 21.955999 0 0 0
613 1 0 2.112 3.869 15.499 0 0 0
614 2 0 1.363 4.98 15.499 0 0 0
615 2 0 1.363 2.758 15.499 0 0 0
616 1 0 2.951 3.869 16.790001 0 0 0
617 3 0 3.56 2.965 16.790001 0 0 0
618 3 0 3.56 4.773 16.790001 0 0 0
619 1 0 2.112 3.869 18.082001 0 0 0
620 2 0 1.363 4.98 18.082001 0 0 0
621 2 0 1.363 2.758 18.082001 0 0 0
622 1 0 2.951 3.869 19.372999 0 0 0
623 3 0 3.56 2.965 19.372999 0 0 0
624 2 0 -0.5229999999999997 4.98 19.372999 1 0 0
625 1 0 2.112 3.869 20.665001 0 0 0
626 2 0 1.363 4.98 20.665001 0 0 0
627 2 0 1.363 2.758 20.665001 0 0 0
628 1 0 2.951 3.869 21.955999 0 0 0
629 3 0 3.56 2.965 21.955999 0 0 0
630 3 0 3.56 4.773 21.955999 0 0 0
55 1 0 0 0 23.247999 0 0 0
56 2 0 3.4739999999999998 1.111 23.247999 -1 0 0
57 2 0 3.4739999999999998 -1.111 23.247999 -1 0 0
58 1 0 0.839 0 24.540001 0 0 0
59 3 0 1.448 -0.904 24.540001 0 0 0
60 3 0 1.448 0.904 24.540001 0 0 0
61 1 0 0 0 25.830999 0 0 0
62 2 0 3.4739999999999998 1.111 25.830999 -1 0 0
63 2 0 3.4739999999999998 -1.111 25.830999 -1 0 0
64 1 0 0.839 0 27.122999 0 0 0
65 2 0 1.588 -1.111 27.122999 0 0 0
66 3 0 1.448 0.904 27.122999 0 0 0
67 1 0 0 0 28.414 0 0 0
68 2 0 3.4739999999999998 1.111 28.414 -1 0 0
69 2 0 3.4739999999999998 -1.111 28.414 -1 0 0
70 1 0 0.839 0 29.705999 0 0 0
71 3 0 1.448 -0.904 29.705999 0 0 0
72 3 0 1.448 0.904 29.705999 0 0 0
631 1 0 2.112 3.869 23.247999 0 0 0
632 2 0 1.363 4.98 23.247999 0 0 0
633 2 0 1.363 2.758 23.247999 0 0 0
634 1 0 2.951 3.869 24.540001 0 0 0
635 3 0 3.56 2.965 24.540001 0 0 0
636 3 0 3.56 4.773 24.540001 0 0 0
637 1 0 2.112 3.869 25.830999 0 0 0
638 2 0 1.363 4.98 25.830999 0 0 0
639 2 0 1.363 2.758 25.830999 0 0 0
640 1 0 2.951 3.869 27.122999 0 0 0
641 2 0 -0.5229999999999997 2.758 27.122999 1 0 0
642 3 0 3.56 4.773 27.122999 0 0 0
643 1 0 2.112 3.869 28.414 0 0 0
644 2 0 1.363 4.98 28.414 0 0 0
645 2 0 1.363 2.758 28.414 0 0 0
646 1 0 2.951 3.869 29.705999 0 0 0
647 3 0 3.56 2.965 29.705999 0 0 0
648 3 0 3.56 4.773 29.705999 0 0 0
73 1 0 0 0 30.997 0 0 0
74 2 0 3.4739999999999998 1.111 30.997 -1 0 0
75 2 0 3.4739999999999998 -1.111 30.997 -1 0 0
76 1 0 0.839 0 32.289001 0 0 0
77 3 0 1.448 -0.904 32.289001 0 0 0
78 3 0 1.448 0.904 32.289001 0 0 0
79 1 0 0 0 33.580002 0 0 0
80 2 0 3.4739999999999998 1.111 33.580002 -1 0 0
81 2 0 3.4739999999999998 -1.111 33.580002 -1 0 0
82 1 0 0.839 0 34.872002 0 0 0
83 3 0 1.448 -0.904 34.872002 0 0 0
84 2 0 1.588 1.111 34.872002 0 0 0
85 1 0 0 0 36.162998 0 0 0
86 2 0 3.4739999999999998 1.111 36.162998 -1 0 0
87 2 0 3.4739999999999998 -1.111 36.162998 -1 0 0
88 1 0 0.839 0 37.455002 0 0 0
89 3 0 1.448 -0.904 37.455002 0 0 0
90 3 0 1.448 0.904 37.455002 0 0 0
649 1 0 2.112 3.869 30.997 0 0 0
650 2 0 1.363 4.98 30.997 0 0 0
651 2 0 1.363 2.758 30.997 0 0 0
652 1 0 2.951 3.869 32.289001 0 0 0
653 3 0 3.56 2.965 32.289001 0 0 0
654 3 0 3.56 4.773 32.289001 0 0 0
655 1 0 2.112 3.869 33.580002 0 0 0
656 2 0 1.363 4.98 33.580002 0 0 0
657 2 0 1.363 2.758 33.580002 0 0 0
658 1 0 2.951 3.869 34.872002 0 0 0
659 3 0 3.56 2.965 34.872002 0 0 0
660 2 0 -0.5229999999999997 4.98 34.872002 1 0 0
661 1 0 2.112 3.869 36.162998 0 0 0
662 2 0 1.363 4.98 36.162998 0 0 0
663 2 0 1.363 2.758 36.162998 0 0 0
664 1 0 2.951 3.869 37.455002 0 0 0
665 3 0 3.56 2.965 37.455002 0 0 0
666 3 0 3.56 4.773 37.455002 0 0 0
91 1 0 0 0 38.747002 0 0 0
92 2 0 3.4739999999999998 1.111 38.747002 -1 0 0
93 2 0 3.4739999999999998 -1.111 38.747002 -1 0 0
94 1 0 0.839 0 40.037998 0 0 0
95 3 0 1.448 -0.904 40.037998 0 0 0
96 3 0 1.448 0.904 40.037998 0 0 0
97 1 0 0 0 41.330002 0 0 0
98 2 0 3.4739999999999998 1.111 41.330002 -1 0 0
99 2 0 3.4739999999999998 -1.111 41.330002 -1 0 0
100 1 0 0.839 0 42.620998 0 0 0
101 2 0 1.588 -1.111 42.620998 0 0 0
102 3 0 1.448 0.904 42.620998 0 0 0
103 1 0 0 0 43.912998 0 0 0
104 2 0 3.4739999999999998 1.111 43.912998 -1 0 0
105 2 0 3.4739999999999998 -1.111 43.912998 -1 0 0
106 1 0 0.839 0 45.203999 0 0 0
107 3 0 1.448 -0.904 45.203999 0 0 0
108 3 0 1.448 0.904 45.203999 0 0 0
667 1 0 2.112 3.869 38.747002 0 0 0
668 2 0 1.363 4.98 38.747002 0 0 0
669 2 0 1.363 2.758 38.747002 0 0 0
670 1 0 2.951 3.869 40.037998 0 0 0
671 3 0 3.56 2.965 40.037998 0 0 0
672 3 0 3.56 4.773 40.037998 0 0 0
673 1 0 2.112 3.869 41.330002 0 0 0
674 2 0 1.363 4.98 41.330002 0 0 0
675 2 0 1.363 2.758 41.330002 0 0 0
676 1 0 2.951 3.869 42.620998 0 0 0
677 2 0 -0.5229999999999997 2.758 42.620998 1 0 0
678 3 0 3.56 4.773 42.620998 0 0 0
679 1 0 2.112 3.869 43.912998 0 0 0
680 2 0 1.363 4.98 43.912998 0 0 0
681 2 0 1.363 2.758 43.912998 0 0 0
682 1 0 2.951 3.869 45.203999 0 0 0
683 3 0 3.56 2.965 45.203999 0 0 0
684 3 0 3.56 4.773 45.203999 0 0 0
109 1 0 0 0 46.495998 0 0 0
110 2 0 3.4739999999999998 1.111 46.495998 -1 0 0
111 2 0 3.4739999999999998 -1.111 46.495998 -1 0 0
112 1 0 0.839 0 47.786999 0 0 0
113 3 0 1.448 -0.904 47.786999 0 0 0
114 3 0 1.448 0.904 47.786999 0 0 0
115 1 0 0 0 49.078999 0 0 0
116 2 0 3.4739999999999998 1.111 49.078999 -1 0 0
117 2 0 3.4739999999999998 -1.111 49.078999 -1 0 0
118 1 0 0.839 0 50.370998 0 0 0
119 3 0 1.448 -0.904 50.370998 0 0 0
120 2 0 1.588 1.111 50.370998 0 0 0
121 1 0 0 0 51.661999 0 0 0
122 2 0 3.4739999999999998 1.111 51.661999 -1 0 0
123 2 0 3.4739999999999998 -1.111 51.661999 -1 0 0
124 1 0 0.839 0 52.953999 0 0 0
125 3 0 1.448 -0.904 52.953999 0 0 0
126 3 0 1.448 0.904 52.953999 0 0 0
685 1 0 2.112 3.869 46.495998 0 0 0
686 2 0 1.363 4.98 46.495998 0 0 0
687 2 0 1.363 2.758 46.495998 0 0 0
688 1 0 2.951 3.869 47.786999 0 0 0
689 3 0 3.56 2.965 47.786999 0 0 0
690 3 0 3.56 4.773 47.786999 0 0 0
691 1 0 2.112 3.869 49.078999 0 0 0
692 2 0 1.363 4.98 49.078999 0 0 0
693 2 0 1.363 2.758 49.078999 0 0 0
694 1 0 2.951 3.869 50.370998 0 0 0
695 3 0 3.56 2.965 50.370998 0 0 0
696 2 0 -0.5229999999999997 4.98 50.370998 1 0 0
697 1 0 2.112 3.869 51.661999 0 0 0
698 2 0 1.363 4.98 51.661999 0 0 0
699 2 0 1.363 2.758 51.661999 0 0 0
700 1 0 2.951 3.869 52.953999 0 0 0
701 3 0 3.56 2.965 52.953999 0 0 0
702 3 0 3.56 4.773 52.953999 0 0 0
127 1 0 0 0 54.244999 0 0 0
128 2 0 3.4739999999999998 1.111 54.244999 -1 0 0
129 2 0 3.4739999999999998 -1.111 54.244999 -1 0 0
130 1 0 0.839 0 55.536999 0 0 0
131 3 0 1.448 -0.904 55.536999 0 0 0
132 3 0 1.448 0.904 55.536999 0 0 0
133 1 0 0 0 56.827999 0 0 0
134 2 0 3.4739999999999998 1.111 56.827999 -1 0 0
135 2 0 3.4739999999999998 -1.111 56.827999 -1 0 0
136 1 0 0.839 0 58.119999 0 0 0
137 2 0 1.588 -1.111 58.119999 0 0 0
138 3 0 1.448 0.904 58.119999 0 0 0
139 1 0 0 0 59.410999 0 0 0
140 2 0 3.4739999999999998 1.111 59.410999 -1 0 0
141 2 0 3.4739999999999998 -1.111 59.410999 -1 0 0
142 1 0 0.839 0 60.702999 0 0 0
143 3 0 1.448 -0.904 60.702999 0 0 0
144 3 0 1.448 0.904 60.702999 0 0 0
703 1 0 2.112 3.869 54.244999 0 0 0
704 2 0 1.363 4.98 54.244999 0 0 0
705 2 0 1.363 2.758 54.244999 0 0 0
706 1 0 2.951 3.869 55.536999 0 0 0
707 3 0 3.56 2.965 55.536999 0 0 0
708 3 0 3.56 4.773 55.536999 0 0 0
709 1 0 2.112 3.869 56.827999 0 0 0
710 2 0 1.363 4.98 56.827999 0 0 0
711 2 0 1.363 2.758 56.827999 0 0 0
712 1 0 2.951 3.869 58.119999 0 0 0
713 2 0 -0.5229999999999997 2.758 58.119999 1 0 0
714 3 0 3.56 4.773 58.119999 0 0 0
715 1 0 2.112 3.869 59.410999 0 0 0
716 2 0 1.363 4.98 59.410999 0 0 0
717 2 0 1.363 2.758 59.410999 0 0 0
718 1 0 2.951 3.869 60.702999 0 0 0
719 3 0 3.56 2.965 60.702999 0 0 0
720 3 0 3.56 4.773 60.702999 0 0 0
145 1 0 0 0 61.994999 0 0 0
146 2 0 3.4739999999999998 1.111 61.994999 -1 0 0
147 2 0 3.4739999999999998 -1.111 61.994999 -1 0 0
148 1 0 0.839 0 63.285999 0 0 0
149 3 0 1.448 -0.904 63.285999 0 0 0
150 3 0 1.448 0.904 63.285999 0 0 0
151 1 0 0 0 64.578003 0 0 0
152 2 0 3.4739999999999998 1.111 64.578003 -1 0 0
153 2 0 3.4739999999999998 -1.111 64.578003 -1 0 0
154 1 0 0.839 0 65.869003 0 0 0
155 3 0 1.448 -0.904 65.869003 0 0 0
156 3 0 1.448 0.904 65.869003 0 0 0
157 1 0 0 0 67.161003 0 0 0
158 2 0 3.4739999999999998 1.111 67.161003 -1 0 0
159 2 0 3.4739999999999998 -1.111 67.161003 -1 0 0
160 1 0 0.839 0 68.452003 0 0 0
161 3 0 1.448 -0.904 68.452003 0 0 0
162 3 0 1.448 0.904 68.452003 0 0 0
721 1 0 2.112 3.869 61.994999 0 0 0
722 2 0 1.363 4.98 61.994999 0 0 0
723 2 0 1.363 2.758 61.994999 0 0 0
724 1 0 2.951 3.869 63.285999 0 0 0
725 3 0 3.56 2.965 63.285999 0 0 0
726 3 0 3.56 4.773 63.285999 0 0 0
727 1 0 2.112 3.869 64.578003 0 0 0
728 2 0 1.363 4.98 64.578003 0 0 0
729 2 0 1.363 2.758 64.578003 0 0 0
730 1 0 2.951 3.869 65.869003 0 0 0
731 3 0 3.56 2.965 65.869003 0 0 0
732 3 0 3.56 4.773 65.869003 0 0 0
733 1 0 2.112 3.869 67.161003 0 0 0
734 2 0 1.363 4.98 67.161003 0 0 0
735 2 0 1.363 2.758 67.161003 0 0 0
736 1 0 2.951 3.869 68.452003 0 0 0
737 3 0 3.56 2.965 68.452003 0 0 0
738 3 0 3.56 4.773 68.452003 0 0 0
163 1 0 0 0 69.744003 0 0 0
164 2 0 3.4739999999999998 1.111 69.744003 -1 0 0
165 2 0 3.4739999999999998 -1.111 69.744003 -1 0 0
166 1 0 0.839 0 71.035004 0 0 0
167 3 0 1.448 -0.904 71.035004 0 0 0
168 3 0 1.448 0.904 71.035004 0 0 0
169 1 0 0 0 72.327003 0 0 0
170 2 0 3.4739999999999998 1.111 72.327003 -1 0 0
171 2 0 3.4739999999999998 -1.111 72.327003 -1 0 0
172 1 0 0.839 0 73.619003 0 0 0
173 2 0 1.588 -1.111 73.619003 0 0 0
174 3 0 1.448 0.904 73.619003 0 0 0
175 1 0 0 0 74.910004 0 0 0
176 2 0 3.4739999999999998 1.111 74.910004 -1 0 0
177 2 0 3.4739999999999998 -1.111 74.910004 -1 0 0
178 1 0 0.839 0 76.202003 0 0 0
179 3 0 1.448 -0.904 76.202003 0 0 0
180 3 0 1.448 0.904 76.202003 0 0 0
739 1 0 2.112 3.869 69.744003 0 0 0
740 2 0 1.363 4.98 69.744003 0 0 0
741 2 0 1.363 2.758 69.744003 0 0 0
742 1 0 2.951 3.869 71.035004 0 0 0
743 3 0 3.56 2.965 71.035004 0 0 0
744 3 0 3.56 4.773 71.035004 0 0 0
745 1 0 2.112 3.869 72.327003 0 0 0
746 2 0 1.363 4.98 72.327003 0 0 0
747 2 0 1.363 2.758 72.327003 0 0 0
748 1 0 2.951 3.869 73.619003 0 0 0
749 2 0 -0.5229999999999997 2.758 73.619003 1 0 0
750 3 0 3.56 4.773 73.619003 0 0 0
751 1 0 2.112 3.869 74.910004 0 0 0
752 2 0 1.363 4.98 74.910004 0 0 0
753 2 0 1.363 2.758 74.910004 0 0 0
754 1 0 2.951 3.869 76.202003 0 0 0
755 3 0 3.56 2.965 76.202003 0 0 0
756 3 0 3.56 4.773 76.202003 0 0 0
181 1 0 0 0 77.492996 0 0 0
182 2 0 3.4739999999999998 1.111 77.492996 -1 0 0
183 2 0 3.4739999999999998 -1.111 77.492996 -1 0 0
184 1 0 0.839 0 78.785004 0 0 0
185 3 0 1.448 -0.904 78.785004 0 0 0
186 3 0 1.448 0.904 78.785004 0 0 0
187 1 0 0 0 80.075996 0 0 0
188 2 0 3.4739999999999998 1.111 80.075996 -1 0 0
189 2 0 3.4739999999999998 -1.111 80.075996 -1 0 0
190 1 0 0.839 0 81.367996 0 0 0
191 3 0 1.448 -0.904 81.367996 0 0 0
192 2 0 1.588 1.111 81.367996 0 0 0
193 1 0 0 0 82.658997 0 0 0
194 2 0 3.4739999999999998 1.111 82.658997 -1 0 0
195 2 0 3.4739999999999998 -1.111 82.658997 -1 0 0
196 1 0 0.839 0 83.950996 0 0 0
197 3 0 1.448 -0.904 83.950996 0 0 0
198 3 0 1.448 0.904 83.950996 0 0 0
757 1 0 2.112 3.869 77.492996 0 0 0
758 2 0 1.363 4.98 77.492996 0 0 0
759 2 0 1.363 2.758 77.492996 0 0 0
760 1 0 2.951 3.869 78.785004 0 0 0
761 3 0 3.56 2.965 78.785004 0 0 0
762 3 0 3.56 4.773 78.785004 0 0 0
763 1 0 2.112 3.869 80.075996 0 0 0
764 2 0 1.363 4.98 80.075996 0 0 0
765 2 0 1.363 2.758 80.075996 0 0 0
766 1 0 2.951 3.869 81.367996 0 0 0
767 3 0 3.56 2.965 81.367996 0 0 0
768 2 0 -0.5229999999999997 4.98 81.367996 1 0 0
769 1 0 2.112 3.869 82.658997 0 0 0
770 2 0 1.363 4.98 82.658997 0 0 0
771 2 0 1.363 2.758 82.658997 0 0 0
772 1 0 2.951 3.869 83.950996 0 0 0
773 3 0 3.56 2.965 83.950996 0 0 0
774 3 0 3.56 4.773 83.950996 0 0 0
199 1 0 0 0 85.241997 0 0 0
200 2 0 3.4739999999999998 1.111 85.241997 -1 0 0
201 2 0 3.4739999999999998 -1.111 85.241997 -1 0 0
202 1 0 0.839 0 86.533997 0 0 0
203 3 0 1.448 -0.904 86.533997 0 0 0
204 3 0 1.448 0.904 86.533997 0 0 0
205 1 0 0 0 87.825996 0 0 0
206 2 0 3.4739999999999998 1.111 87.825996 -1 0 0
207 2 0 3.4739999999999998 -1.111 87.825996 -1 0 0
208 1 0 0.839 0 89.116997 0 0 0
209 2 0 1.588 -1.111 89.116997 0 0 0
210 3 0 1.448 0.904 89.116997 0 0 0
211 1 0 0 0 90.408997 0 0 0
212 2 0 3.4739999999999998 1.111 90.408997 -1 0 0
213 2 0 3.4739999999999998 -1.111 90.408997 -1 0 0
214 1 0 0.839 0 91.699997 0 0 0
215 3 0 1.448 -0.904 91.699997 0 0 0
216 3 0 1.448 0.904 91.699997 0 0 0
775 1 0 2.112 3.869 85.241997 0 0 0
776 2 0 1.363 4.98 85.241997 0 0 0
777 2 0 1.363 2.758 85.241997 0 0 0
778 1 0 2.951 3.869 86.533997 0 0 0
779 3 0 3.56 2.965 86.533997 0 0 0
780 3 0 3.56 4.773 86.533997 0 0 0
781 1 0 2.112 3.869 87.825996 0 0 0
782 2 0 1.363 4.98 87.825996 0 0 0
783 2 0 1.363 2.758 87.825996 0 0 0
784 1 0 2.951 3.869 89.116997 0 0 0
785 2 0 -0.5229999999999997 2.758 89.116997 1 0 0
786 3 0 3.56 4.773 89.116997 0 0 0
787 1 0 2.112 3.869 90.408997 0 0 0
788 2 0 1.363 4.98 90.408997 0 0 0
789 2 0 1.363 2.758 90.408997 0 0 0
790 1 0 2.951 3.869 91.699997 0 0 0
791 3 0 3.56 2.965 91.699997 0 0 0
792 3 0 3.56 4.773 91.699997 0 0 0
217 1 0 0 0 92.991997 0 0 0
218 2 0 3.4739999999999998 1.111 92.991997 -1 0 0
219 2 0 3.4739999999999998 -1.111 92.991997 -1 0 0
220 1 0 0.839 0 94.282997 0 0 0
221 3 0 1.448 -0.904 94.282997 0 0 0
222 3 0 1.448 0.904 94.282997 0 0 0
223 1 0 0 0 95.574997 0 0 0
224 2 0 3.4739999999999998 1.111 95.574997 -1 0 0
225 2 0 3.4739999999999998 -1.111 95.574997 -1 0 0
226 1 0 0.839 0 96.865997 0 0 0
227 3 0 1.448 -0.904 96.865997 0 0 0
228 2 0 1.588 1.111 96.865997 0 0 0
229 1 0 0 0 98.157997 0 0 0
230 2 0 3.4739999999999998 1.111 98.157997 -1 0 0
231 2 0 3.4739999999999998 -1.111 98.157997 -1 0 0
232 1 0 0.839 0 99.449997 0 0 0
233 3 0 1.448 -0.904 99.449997 0 0 0
234 3 0 1.448 0.904 99.449997 0 0 0
793 1 0 2.112 3.869 92.991997 0 0 0
794 2 0 1.363 4.98 92.991997 0 0 0
795 2 0 1.363 2.758 92.991997 0 0 0
796 1 0 2.951 3.869 94.282997 0 0 0
797 3 0 3.56 2.965 94.282997 0 0 0
798 3 0 3.56 4.773 94.282997 0 0 0
799 1 0 2.112 3.869 95.574997 0 0 0
800 2 0 1.363 4.98 95.574997 0 0 0
801 2 0 1.363 2.758 95.574997 0 0 0
802 1 0 2.951 3.869 96.865997 0 0 0
803 3 0 3.56 2.965 96.865997 0 0 0
804 2 0 -0.5229999999999997 4.98 96.865997 1 0 0
805 1 0 2.112 3.869 98.157997 0 0 0
806 2 0 1.363 4.98 98.157997 0 0 0
807 2 0 1.363 2.758 98.157997 0 0 0
808 1 0 2.951 3.869 99.449997 0 0 0
809 3 0 3.56 2.965 99.449997 0 0 0
810 3 0 3.56 4.773 99.449997 0 0 0
235 1 0 0 0 100.740997 0 0 0
236 2 0 3.4739999999999998 1.111 100.740997 -1 0 0
237 2 0 3.4739999999999998 -1.111 100.740997 -1 0 0
238 1 0 0.839 0 102.032997 0 0 0
239 3 0 1.448 -0.904 102.032997 0 0 0
240 3 0 1.448 0.904 102.032997 0 0 0
241 1 0 0 0 103.323997 0 0 0
242 2 0 3.4739999999999998 1.111 103.323997 -1 0 0
243 2 0 3.4739999999999998 -1.111 103.323997 -1 0 0
244 1 0 0.839 0 104.615997 0 0 0
245 2 0 1.588 -1.111 104.615997 0 0 0
246 3 0 1.448 0.904 104.615997 0 0 0
247 1 0 0 0 105.906998 0 0 0
248 2 0 3.4739999999999998 1.111 105.906998 -1 0 0
249 2 0 3.4739999999999998 -1.111 105.906998 -1 0 0
250 1 0 0.839 0 107.198997 0 0 0
251 3 0 1.448 -0.904 107.198997 0 0 0
252 3 0 1.448 0.904 107.198997 0 0 0
811 1 0 2.112 3.869 100.740997 0 0 0
812 2 0 1.363 4.98 100.740997 0 0 0
813 2 0 1.363 2.758 100.740997 0 0 0
814 1 0 2.951 3.869 102.032997 0 0 0
815 3 0 3.56 2.965 102.032997 0 0 0
816 3 0 3.56 4.773 102.032997 0 0 0
817 1 0 2.112 3.869 103.323997 0 0 0
818 2 0 1.363 4.98 103.323997 0 0 0
819 2 0 1.363 2.758 103.323997 0 0 0
820 1 0 2.951 3.869 104.615997 0 0 0
821 2 0 -0.5229999999999997 2.758 104.615997 1 0 0
822 3 0 3.56 4.773 104.615997 0 0 0
823 1 0 2.112 3.869 105.906998 0 0 0
824 2 0 1.363 4.98 105.906998 0 0 0
825 2 0 1.363 2.758 105.906998 0 0 0
826 1 0 2.951 3.869 107.198997 0 0 0
827 3 0 3.56 2.965 107.198997 0 0 0
828 3 0 3.56 4.773 107.198997 0 0 0
253 1 0 0 0 108.489998 0 0 0
254 2 0 3.4739999999999998 1.111 108.489998 -1 0 0
255 2 0 3.4739999999999998 -1.111 108.489998 -1 0 0
256 1 0 0.839 0 109.781998 0 0 0
257 3 0 1.448 -0.904 109.781998 0 0 0
258 3 0 1.448 0.904 109.781998 0 0 0
259 1 0 0 0 111.073997 0 0 0
260 2 0 3.4739999999999998 1.111 111.073997 -1 0 0
261 2 0 3.4739999999999998 -1.111 111.073997 -1 0 0
262 1 0 0.839 0 112.364998 0 0 0
263 3 0 1.448 -0.904 112.364998 0 0 0
264 2 0 1.588 1.111 112.364998 0 0 0
265 1 0 0 0 113.656998 0 0 0
266 2 0 3.4739999999999998 1.111 113.656998 -1 0 0
267 2 0 3.4739999999999998 -1.111 113.656998 -1 0 0
268 1 0 0.839 0 114.947998 0 0 0
269 3 0 1.448 -0.904 114.947998 0 0 0
270 3 0 1.448 0.904 114.947998 0 0 0
829 1 0 2.112 3.869 108.489998 0 0 0
830 2 0 1.363 4.98 108.489998 0 0 0
831 2 0 1.363 2.758 108.489998 0 0 0
832 1 0 2.951 3.869 109.781998 0 0 0
833 3 0 3.56 2.965 109.781998 0 0 0
834 3 0 3.56 4.773 109.781998 0 0 0
835 1 0 2.112 3.869 111.073997 0 0 0
836 2 0 1.363 4.98 111.073997 0 0 0
837 2 0 1.363 2.758 111.073997 0 0 0
838 1 0 2.951 3.869 112.364998 0 0 0
839 3 0 3.56 2.965 112.364998 0 0 0
840 2 0 -0.5229999999999997 4.98 112.364998 1 0 0
841 1 0 2.112 3.869 113.656998 0 0 0
842 2 0 1.363 4.98 113.656998 0 0 0
843 2 0 1.363 2.758 113.656998 0 0 0
844 1 0 2.951 3.869 114.947998 0 0 0
845 3 0 3.56 2.965 114.947998 0 0 0
846 3 0 3.56 4.773 114.947998 0 0 0
271 1 0 0 0 116.239998 0 0 0
272 2 0 3.4739999999999998 1.111 116.239998 -1 0 0
273 2 0 3.4739999999999998 -1.111 116.239998 -1 0 0
274 1 0 0.839 0 117.530998 0 0 0
275 3 0 1.448 -0.904 117.530998 0 0 0
276 3 0 1.448 0.904 117.530998 0 0 0
277 1 0 0 0 118.822998 0 0 0
278 2 0 3.4739999999999998 1.111 118.822998 -1 0 0
279 2 0 3.4739999999999998 -1.111 118.822998 -1 0 0
280 1 0 0.839 0 120.113998 0 0 0
281 2 0 1.588 -1.111 120.113998 0 0 0
282 3 0 1.448 0.904 120.113998 0 0 0
283 1 0 0 0 121.405998 0 0 0
284 2 0 3.4739999999999998 1.111 121.405998 -1 0 0
285 2 0 3.4739999999999998 -1.111 121.405998 -1 0 0
286 1 0 0.839 0 122.697998 0 0 0
287 3 0 1.448 -0.904 122.697998 0 0 0
288 3 0 1.448 0.904 122.697998 0 0 0
847 1 0 2.112 3.869 116.239998 0 0 0
848 2 0 1.363 4.98 116.239998 0 0 0
849 2 0 1.363 2.758 116.239998 0 0 0
850 1 0 2.951 3.869 117.530998 0 0 0
851 3 0 3.56 2.965 117.530998 0 0 0
852 3 0 3.56 4.773 117.530998 0 0 0
853 1 0 2.112 3.869 118.822998 0 0 0
854 2 0 1.363 4.98 118.822998 0 0 0
855 2 0 1.363 2.758 118.822998 0 0 0
856 1 0 2.951 3.869 120.113998 0 0 0
857 2 0 -0.5229999999999997 2.758 120.113998 1 0 0
858 3 0 3.56 4.773 120.113998 0 0 0
859 1 0 2.112 3.869 121.405998 0 0 0
860 2 0 1.363 4.98 121.405998 0 0 0
861 2 0 1.363 2.758 121.405998 0 0 0
862 1 0 2.951 3.869 122.697998 0 0 0
863 3 0 3.56 2.965 122.697998 0 0 0
864 3 0 3.56 4.773 122.697998 0 0 0
289 1 0 0 0 123.993599 0 0 0
290 2 0 3.4739999999999998 1.111 123.993599 -1 0 0
291 2 0 3.4739999999999998 -1.111 123.993599 -1 0 0
292 1 0 0.839 0 125.285599 0 0 0
293 3 0 1.448 -0.904 125.285599 0 0 0
294 3 0 1.448 0.904 125.285599 0 0 0
295 1 0 0 0 126.576599 0 0 0
296 2 0 3.4739999999999998 1.111 126.576599 -1 0 0
297 2 0 3.4739999999999998 -1.111 126.576599 -1 0 0
298 1 0 0.839 0 127.868599 0 0 0
299 3 0 1.448 -0.904 127.868599 0 0 0
300 3 0 1.448 0.904 127.868599 0 0 0
301 1 0 0 0 129.159607 0 0 0
302 2 0 3.4739999999999998 1.111 129.159607 -1 0 0
303 2 0 3.4739999999999998 -1.111 129.159607 -1 0 0
304 1 0 0.839 0 130.451599 0 0 0
305 3 0 1.448 -0.904 130.451599 0 0 0
306 3 0 1.448 0.904 130.451599 0 0 0
865 1 0 2.112 3.869 123.993599 0 0 0
866 2 0 1.363 4.98 123.993599 0 0 0
867 2 0 1.363 2.758 123.993599 0 0 0
868 1 0 2.951 3.869 125.285599 0 0 0
869 3 0 3.56 2.965 125.285599 0 0 0
870 3 0 3.56 4.773 125.285599 0 0 0
871 1 0 2.112 3.869 126.576599 0 0 0
872 2 0 1.363 4.98 126.576599 0 0 0
873 2 0 1.363 2.758 126.576599 0 0 0
874 1 0 2.951 3.869 127.868599 0 0 0
875 3 0 3.56 2.965 127.868599 0 0 0
876 3 0 3.56 4.773 127.868599 0 0 0
877 1 0 2.112 3.869 129.159607 0 0 0
878 2 0 1.363 4.98 129.159607 0 0 0
879 2 0 1.363 2.758 129.159607 0 0 0
880 1 0 2.951 3.869 130.451599 0 0 0
881 3 0 3.56 2.965 130.451599 0 0 0
882 3 0 3.56 4.773 130.451599 0 0 0
307 1 0 0 0 131.742599 0 0 0
308 2 0 3.4739999999999998 1.111 131.742599 -1 0 0
309 2 0 3.4739999999999998 -1.111 131.742599 -1 0 0
310 1 0 0.839 0 133.034607 0 0 0
311 3 0 1.448 -0.904 133.034607 0 0 0
312 3 0 1.448 0.904 133.034607 0 0 0
313 1 0 0 0 134.325607 0 0 0
314 2 0 3.4739999999999998 1.111 134.325607 -1 0 0
315 2 0 3.4739999999999998 -1.111 134.325607 -1 0 0
316 1 0 0.839 0 135.617599 0 0 0
317 2 0 1.588 -1.111 135.617599 0 0 0
318 3 0 1.448 0.904 135.617599 0 0 0
319 1 0 0 0 136.909607 0 0 0
320 2 0 3.4739999999999998 1.111 136.909607 -1 0 0
321 2 0 3.4739999999999998 -1.111 136.909607 -1 0 0
322 1 0 0.839 0 138.200607 0 0 0
323 3 0 1.448 -0.904 138.200607 0 0 0
324 3 0 1.448 0.904 138.200607 0 0 0
883 1 0 2.112 3.869 131.742599 0 0 0
884 2 0 1.363 4.98 131.742599 0 0 0
885 2 0 1.363 2.758 131.742599 0 0 0
886 1 0 2.951 3.869 133.034607 0 0 0
887 3 0 3.56 2.965 133.034607 0 0 0
888 3 0 3.56 4.773 133.034607 0 0 0
889 1 0 2.112 3.869 134.325607 0 0 0
890 2 0 1.363 4.98 134.325607 0 0 0
891 2 0 1.363 2.758 134.325607 0 0 0
892 1 0 2.951 3.869 135.617599 0 0 0
893 2 0 -0.5229999999999997 2.758 135.617599 1 0 0
894 3 0 3.56 4.773 135.617599 0 0 0
895 1 0 2.112 3.869 136.909607 0 0 0
896 2 0 1.363 4.98 136.909607 0 0 0
897 2 0 1.363 2.758 136.909607 0 0 0
898 1 0 2.951 3.869 138.200607 0 0 0
899 3 0 3.56 2.965 138.200607 0 0 0
900 3 0 3.56 4.773 138.200607 0 0 0
325 1 0 0 0 139.492599 0 0 0
326 2 0 3.4739999999999998 1.111 139.492599 -1 0 0
327 2 0 3.4739999999999998 -1.111 139.492599 -1 0 0
328 1 0 0.839 0 140.7836 0 0 0
329 3 0 1.448 -0.904 140.7836 0 0 0
330 3 0 1.448 0.904 140.7836 0 0 0
331 1 0 0 0 142.075607 0 0 0
332 2 0 3.4739999999999998 1.111 142.075607 -1 0 0
333 2 0 3.4739999999999998 -1.111 142.075607 -1 0 0
334 1 0 0.839 0 143.366592 0 0 0
335 3 0 1.448 -0.904 143.366592 0 0 0
336 2 0 1.588 1.111 143.366592 0 0 0
337 1 0 0 0 144.6586 0 0 0
338 2 0 3.4739999999999998 1.111 144.6586 -1 0 0
339 2 0 3.4739999999999998 -1.111 144.6586 -1 0 0
340 1 0 0.839 0 145.9496 0 0 0
341 3 0 1.448 -0.904 145.9496 0 0 0
342 3 0 1.448 0.904 145.9496 0 0 0
901 1 0 2.112 3.869 139.492599 0 0 0
902 2 0 1.363 4.98 139.492599 0 0 0
903 2 0 1.363 2.758 139.492599 0 0 0
904 1 0 2.951 3.869 140.7836 0 0 0
905 3 0 3.56 2.965 140.7836 0 0 0
906 3 0 3.56 4.773 140.7836 0 0 0
907 1 0 2.112 3.869 142.075607 0 0 0
908 2 0 1.363 4.98 142.075607 0 0 0
909 2 0 1.363 2.758 142.075607 0 0 0
910 1 0 2.951 3.869 143.366592 0 0 0
911 3 0 3.56 2.965 143.366592 0 0 0
912 2 0 -0.5229999999999997 4.98 143.366592 1 0 0
913 1 0 2.112 3.869 144.6586 0 0 0
914 2 0 1.363 4.98 144.6586 0 0 0
915 2 0 1.363 2.758 144.6586 0 0 0
916 1 0 2.951 3.869 145.9496 0 0 0
917 3 0 3.56 2.965 145.9496 0 0 0
918 3 0 3.56 4.773 145.9496 0 0 0
343 1 0 0 0 147.241592 0 0 0
344 2 0 3.4739999999999998 1.111 147.241592 -1 0 0
345 2 0 3.4739999999999998 -1.111 147.241592 -1 0 0
346 1 0 0.839 0 148.5336 0 0 0
347 3 0 1.448 -0.904 148.5336 0 0 0
348 3 0 1.448 0.904 148.5336 0 0 0
349 1 0 0 0 149.8246 0 0 0
350 2 0 3.4739999999999998 1.111 149.8246 -1 0 0
351 2 0 3.4739999999999998 -1.111 149.8246 -1 0 0
352 1 0 0.839 0 151.116592 0 0 0
353 2 0 1.588 -1.111 151.116592 0 0 0
354 3 0 1.448 0.904 151.116592 0 0 0
355 1 0 0 0 152.407593 0 0 0
356 2 0 3.4739999999999998 1.111 152.407593 -1 0 0
357 2 0 3.4739999999999998 -1.111 152.407593 -1 0 0
358 1 0 0.839 0 153.6996 0 0 0
359 3 0 1.448 -0.904 153.6996 0 0 0
360 3 0 1.448 0.904 153.6996 0 0 0
919 1 0 2.112 3.869 147.241592 0 0 0
920 2 0 1.363 4.98 147.241592 0 0 0
921 2 0 1.363 2.758 147.241592 0 0 0
922 1 0 2.951 3.869 148.5336 0 0 0
923 3 0 3.56 2.965 148.5336 0 0 0
924 3 0 3.56 4.773 148.5336 0 0 0
925 1 0 2.112 3.869 149.8246 0 0 0
926 2 0 1.363 4.98 149.8246 0 0 0
927 2 0 1.363 2.758 149.8246 0 0 0
928 1 0 2.951 3.869 151.116592 0 0 0
929 2 0 -0.5229999999999997 2.758 151.116592 1 0 0
930 3 0 3.56 4.773 151.116592 0 0 0
931 1 0 2.112 3.869 152.407593 0 0 0
932 2 0 1.363 4.98 152.407593 0 0 0
933 2 0 1.363 2.758 152.407593 0 0 0
934 1 0 2.951 3.869 153.6996 0 0 0
935 3 0 3.56 2.965 153.6996 0 0 0
936 3 0 3.56 4.773 153.6996 0 0 0
361 1 0 0 0 154.990601 0 0 0
362 2 0 3.4739999999999998 1.111 154.990601 -1 0 0
363 2 0 3.4739999999999998 -1.111 154.990601 -1 0 0
364 1 0 0.839 0 156.282593 0 0 0
365 3 0 1.448 -0.904 156.282593 0 0 0
366 3 0 1.448 0.904 156.282593 0 0 0
367 1 0 0 0 157.573593 0 0 0
368 2 0 3.4739999999999998 1.111 157.573593 -1 0 0
369 2 0 3.4739999999999998 -1.111 157.573593 -1 0 0
370 1 0 0.839 0 158.865601 0 0 0
371 3 0 1.448 -0.904 158.865601 0 0 0
372 2 0 1.588 1.111 158.865601 0 0 0
373 1 0 0 0 160.156601 0 0 0
374 2 0 3.4739999999999998 1.111 160.156601 -1 0 0
375 2 0 3.4739999999999998 -1.111 160.156601 -1 0 0
376 1 0 0.839 0 161.448593 0 0 0
377 3 0 1.448 -0.904 161.448593 0 0 0
378 3 0 1.448 0.904 161.448593 0 0 0
937 1 0 2.112 3.869 154.990601 0 0 0
938 2 0 1.363 4.98 154.990601 0 0 0
939 2 0 1.363 2.758 154.990601 0 0 0
940 1 0 2.951 3.869 156.282593 0 0 0
941 3 0 3.56 2.965 156.282593 0 0 0
942 3 0 3.56 4.773 156.282593 0 0 0
943 1 0 2.112 3.869 157.573593 0 0 0
944 2 0 1.363 4.98 157.573593 0 0 0
945 2 0 1.363 2.758 157.573593 0 0 0
946 1 0 2.951 3.869 158.865601 0 0 0
947 3 0 3.56 2.965 158.865601 0 0 0
948 2 0 -0.5229999999999997 4.98 158.865601 1 0 0
949 1 0 2.112 3.869 160.156601 0 0 0
950 2 0 1.363 4.98 160.156601 0 0 0
951 2 0 1.363 2.758 160.156601 0 0 0
952 1 0 2.951 3.869 161.448593 0 0 0
953 3 0 3.56 2.965 161.448593 0 0 0
954 3 0 3.56 4.773 161.448593 0 0 0
379 1 0 0 0 162.740601 0 0 0
380 2 0 3.4739999999999998 1.111 162.740601 -1 0 0
381 2 0 3.4739999999999998 -1.111 162.740601 -1 0 0
382 1 0 0.839 0 164.031601 0 0 0
383 3 0 1.448 -0.904 164.031601 0 0 0
384 3 0 1.448 0.904 164.031601 0 0 0
385 1 0 0 0 165.323593 0 0 0
386 2 0 3.4739999999999998 1.111 165.323593 -1 0 0
387 2 0 3.4739999999999998 -1.111 165.323593 -1 0 0
388 1 0 0.839 0 166.614594 0 0 0
389 2 0 1.588 -1.111 166.614594 0 0 0
390 3 0 1.448 0.904 166.614594 0 0 0
391 1 0 0 0 167.906601 0 0 0
392 2 0 3.4739999999999998 1.111 167.906601 -1 0 0
393 2 0 3.4739999999999998 -1.111 167.906601 -1 0 0
394 1 0 0.839 0 169.197601 0 0 0
395 3 0 1.448 -0.904 169.197601 0 0 0
396 3 0 1.448 0.904 169.197601 0 0 0
955 1 0 2.112 3.869 162.740601 0 0 0
956 2 0 1.363 4.98 162.740601 0 0 0
957 2 0 1.363 2.758 162.740601 0 0 0
958 1 0 2.951 3.869 164.031601 0 0 0
959 3 0 3.56 2.965 164.031601 0 0 0
960 3 0 3.56 4.773 164.031601 0 0 0
961 1 0 2.112 3.869 165.323593 0 0 0
962 2 0 1.363 4.98 165.323593 0 0 0
963 2 0 1.363 2.758 165.323593 0 0 0
964 1 0 2.951 3.869 166.614594 0 0 0
965 2 0 -0.5229999999999997 2.758 166.614594 1 0 0
966 3 0 3.56 4.773 166.614594 0 0 0
967 1 0 2.112 3.869 167.906601 0 0 0
968 2 0 1.363 4.98 167.906601 0 0 0
969 2 0 1.363 2.758 167.906601 0 0 0
970 1 0 2.951 3.869 169.197601 0 0 0
971 3 0 3.56 2.965 169.197601 0 0 0
972 3 0 3.56 4.773 169.197601 0 0 0
397 1 0 0 0 170.489594 0 0 0
398 2 0 3.4739999999999998 1.111 170.489594 -1 0 0
399 2 0 3.4739999999999998 -1.111 170.489594 -1 0 0
400 1 0 0.839 0 171.780594 0 0 0