LAMMPS data file. CGCMM style. atom_style charge generated by VMD/TopoTools v1.8 on Thu Nov 02 15:29:24 EDT 2023
 1152 atoms
 0 bonds
 0 angles
 0 dihedrals
 0 impropers
 3 atom types
 0 bond types
 0 angle types
 0 dihedral types
 0 improper types
 -0.636000 3.587000  xlo xhi
 -1.934500 5.803500  ylo yhi
 -0.647798 247.339400  zlo zhi

# Pair Coeffs
#
# 1  C
# 2  F
# 3  H

 Masses

 1 12.010700 # C
 2 18.998404 # F
 3 1.007940 # H

 Atoms # charge

1 1 0.000000 0.000000 0.000000 0.000000 # C
2 2 0.000000 -0.749000 1.111000 0.000000 # F
3 2 0.000000 -0.749000 -1.111000 0.000000 # F
4 1 0.000000 0.839000 0.000000 1.292000 # C
5 3 0.000000 1.448000 -0.904000 1.292000 # H
6 3 0.000000 1.448000 0.904000 1.292000 # H
7 1 0.000000 0.000000 0.000000 2.583000 # C
8 2 0.000000 -0.749000 1.111000 2.583000 # F
9 2 0.000000 -0.749000 -1.111000 2.583000 # F
10 1 0.000000 0.839000 0.000000 3.875000 # C
11 3 0.000000 1.448000 -0.904000 3.875000 # H
12 3 0.000000 1.448000 0.904000 3.875000 # H
13 1 0.000000 0.000000 0.000000 5.166000 # C
14 2 0.000000 -0.749000 1.111000 5.166000 # F
15 2 0.000000 -0.749000 -1.111000 5.166000 # F
16 1 0.000000 0.839000 0.000000 6.458000 # C
17 3 0.000000 1.448000 -0.904000 6.458000 # H
18 3 0.000000 1.448000 0.904000 6.458000 # H
19 1 0.000000 0.000000 0.000000 7.749000 # C
20 2 0.000000 -0.749000 1.111000 7.749000 # F
21 2 0.000000 -0.749000 -1.111000 7.749000 # F
22 1 0.000000 0.839000 0.000000 9.041000 # C
23 3 0.000000 1.448000 -0.904000 9.041000 # H
24 3 0.000000 1.448000 0.904000 9.041000 # H
25 1 0.000000 0.000000 0.000000 10.332000 # C
26 2 0.000000 -0.749000 1.111000 10.332000 # F
27 2 0.000000 -0.749000 -1.111000 10.332000 # F
28 1 0.000000 0.839000 0.000000 11.624000 # C
29 2 0.000000 1.588000 -1.111000 11.624000 # F
30 3 0.000000 1.448000 0.904000 11.624000 # H
31 1 0.000000 0.000000 0.000000 12.916000 # C
32 2 0.000000 -0.749000 1.111000 12.916000 # F
33 2 0.000000 -0.749000 -1.111000 12.916000 # F
34 1 0.000000 0.839000 0.000000 14.207000 # C
35 3 0.000000 1.448000 -0.904000 14.207000 # H
36 3 0.000000 1.448000 0.904000 14.207000 # H
37 1 0.000000 0.000000 0.000000 15.499000 # C
38 2 0.000000 -0.749000 1.111000 15.499000 # F
39 2 0.000000 -0.749000 -1.111000 15.499000 # F
40 1 0.000000 0.839000 0.000000 16.790001 # C
41 3 0.000000 1.448000 -0.904000 16.790001 # H
42 3 0.000000 1.448000 0.904000 16.790001 # H
43 1 0.000000 0.000000 0.000000 18.082001 # C
44 2 0.000000 -0.749000 1.111000 18.082001 # F
45 2 0.000000 -0.749000 -1.111000 18.082001 # F
46 1 0.000000 0.839000 0.000000 19.372999 # C
47 3 0.000000 1.448000 -0.904000 19.372999 # H
48 2 0.000000 1.588000 1.111000 19.372999 # F
49 1 0.000000 0.000000 0.000000 20.665001 # C
50 2 0.000000 -0.749000 1.111000 20.665001 # F
51 2 0.000000 -0.749000 -1.111000 20.665001 # F
52 1 0.000000 0.839000 0.000000 21.955999 # C
53 3 0.000000 1.448000 -0.904000 21.955999 # H
54 3 0.000000 1.448000 0.904000 21.955999 # H
55 1 0.000000 0.000000 0.000000 23.247999 # C
56 2 0.000000 -0.749000 1.111000 23.247999 # F
57 2 0.000000 -0.749000 -1.111000 23.247999 # F
58 1 0.000000 0.839000 0.000000 24.540001 # C
59 3 0.000000 1.448000 -0.904000 24.540001 # H
60 3 0.000000 1.448000 0.904000 24.540001 # H
61 1 0.000000 0.000000 0.000000 25.830999 # C
62 2 0.000000 -0.749000 1.111000 25.830999 # F
63 2 0.000000 -0.749000 -1.111000 25.830999 # F
64 1 0.000000 0.839000 0.000000 27.122999 # C
65 2 0.000000 1.588000 -1.111000 27.122999 # F
66 3 0.000000 1.448000 0.904000 27.122999 # H
67 1 0.000000 0.000000 0.000000 28.414000 # C
68 2 0.000000 -0.749000 1.111000 28.414000 # F
69 2 0.000000 -0.749000 -1.111000 28.414000 # F
70 1 0.000000 0.839000 0.000000 29.705999 # C
71 3 0.000000 1.448000 -0.904000 29.705999 # H
72 3 0.000000 1.448000 0.904000 29.705999 # H
73 1 0.000000 0.000000 0.000000 30.997000 # C
74 2 0.000000 -0.749000 1.111000 30.997000 # F
75 2 0.000000 -0.749000 -1.111000 30.997000 # F
76 1 0.000000 0.839000 0.000000 32.289001 # C
77 3 0.000000 1.448000 -0.904000 32.289001 # H
78 3 0.000000 1.448000 0.904000 32.289001 # H
79 1 0.000000 0.000000 0.000000 33.580002 # C
80 2 0.000000 -0.749000 1.111000 33.580002 # F
81 2 0.000000 -0.749000 -1.111000 33.580002 # F
82 1 0.000000 0.839000 0.000000 34.872002 # C
83 3 0.000000 1.448000 -0.904000 34.872002 # H
84 2 0.000000 1.588000 1.111000 34.872002 # F
85 1 0.000000 0.000000 0.000000 36.162998 # C
86 2 0.000000 -0.749000 1.111000 36.162998 # F
87 2 0.000000 -0.749000 -1.111000 36.162998 # F
88 1 0.000000 0.839000 0.000000 37.455002 # C
89 3 0.000000 1.448000 -0.904000 37.455002 # H
90 3 0.000000 1.448000 0.904000 37.455002 # H
91 1 0.000000 0.000000 0.000000 38.747002 # C
92 2 0.000000 -0.749000 1.111000 38.747002 # F
93 2 0.000000 -0.749000 -1.111000 38.747002 # F
94 1 0.000000 0.839000 0.000000 40.037998 # C
95 3 0.000000 1.448000 -0.904000 40.037998 # H
96 3 0.000000 1.448000 0.904000 40.037998 # H
97 1 0.000000 0.000000 0.000000 41.330002 # C
98 2 0.000000 -0.749000 1.111000 41.330002 # F
99 2 0.000000 -0.749000 -1.111000 41.330002 # F
100 1 0.000000 0.839000 0.000000 42.620998 # C
101 2 0.000000 1.588000 -1.111000 42.620998 # F
102 3 0.000000 1.448000 0.904000 42.620998 # H
103 1 0.000000 0.000000 0.000000 43.912998 # C
104 2 0.000000 -0.749000 1.111000 43.912998 # F
105 2 0.000000 -0.749000 -1.111000 43.912998 # F
106 1 0.000000 0.839000 0.000000 45.203999 # C
107 3 0.000000 1.448000 -0.904000 45.203999 # H
108 3 0.000000 1.448000 0.904000 45.203999 # H
109 1 0.000000 0.000000 0.000000 46.495998 # C
110 2 0.000000 -0.749000 1.111000 46.495998 # F
111 2 0.000000 -0.749000 -1.111000 46.495998 # F
112 1 0.000000 0.839000 0.000000 47.786999 # C
113 3 0.000000 1.448000 -0.904000 47.786999 # H
114 3 0.000000 1.448000 0.904000 47.786999 # H
115 1 0.000000 0.000000 0.000000 49.078999 # C
116 2 0.000000 -0.749000 1.111000 49.078999 # F
117 2 0.000000 -0.749000 -1.111000 49.078999 # F
118 1 0.000000 0.839000 0.000000 50.370998 # C
119 3 0.000000 1.448000 -0.904000 50.370998 # H
120 2 0.000000 1.588000 1.111000 50.370998 # F
121 1 0.000000 0.000000 0.000000 51.661999 # C
122 2 0.000000 -0.749000 1.111000 51.661999 # F
123 2 0.000000 -0.749000 -1.111000 51.661999 # F
124 1 0.000000 0.839000 0.000000 52.953999 # C
125 3 0.000000 1.448000 -0.904000 52.953999 # H
126 3 0.000000 1.448000 0.904000 52.953999 # H
127 1 0.000000 0.000000 0.000000 54.244999 # C
128 2 0.000000 -0.749000 1.111000 54.244999 # F
129 2 0.000000 -0.749000 -1.111000 54.244999 # F
130 1 0.000000 0.839000 0.000000 55.536999 # C
131 3 0.000000 1.448000 -0.904000 55.536999 # H
132 3 0.000000 1.448000 0.904000 55.536999 # H
133 1 0.000000 0.000000 0.000000 56.827999 # C
134 2 0.000000 -0.749000 1.111000 56.827999 # F
135 2 0.000000 -0.749000 -1.111000 56.827999 # F
136 1 0.000000 0.839000 0.000000 58.119999 # C
137 2 0.000000 1.588000 -1.111000 58.119999 # F
138 3 0.000000 1.448000 0.904000 58.119999 # H
139 1 0.000000 0.000000 0.000000 59.410999 # C
140 2 0.000000 -0.749000 1.111000 59.410999 # F
141 2 0.000000 -0.749000 -1.111000 59.410999 # F
142 1 0.000000 0.839000 0.000000 60.702999 # C
143 3 0.000000 1.448000 -0.904000 60.702999 # H
144 3 0.000000 1.448000 0.904000 60.702999 # H
145 1 0.000000 0.000000 0.000000 61.994999 # C
146 2 0.000000 -0.749000 1.111000 61.994999 # F
147 2 0.000000 -0.749000 -1.111000 61.994999 # F
148 1 0.000000 0.839000 0.000000 63.285999 # C
149 3 0.000000 1.448000 -0.904000 63.285999 # H
150 3 0.000000 1.448000 0.904000 63.285999 # H
151 1 0.000000 0.000000 0.000000 64.578003 # C
152 2 0.000000 -0.749000 1.111000 64.578003 # F
153 2 0.000000 -0.749000 -1.111000 64.578003 # F
154 1 0.000000 0.839000 0.000000 65.869003 # C
155 3 0.000000 1.448000 -0.904000 65.869003 # H
156 3 0.000000 1.448000 0.904000 65.869003 # H
157 1 0.000000 0.000000 0.000000 67.161003 # C
158 2 0.000000 -0.749000 1.111000 67.161003 # F
159 2 0.000000 -0.749000 -1.111000 67.161003 # F
160 1 0.000000 0.839000 0.000000 68.452003 # C
161 3 0.000000 1.448000 -0.904000 68.452003 # H
162 3 0.000000 1.448000 0.904000 68.452003 # H
163 1 0.000000 0.000000 0.000000 69.744003 # C
164 2 0.000000 -0.749000 1.111000 69.744003 # F
165 2 0.000000 -0.749000 -1.111000 69.744003 # F
166 1 0.000000 0.839000 0.000000 71.035004 # C
167 3 0.000000 1.448000 -0.904000 71.035004 # H
168 3 0.000000 1.448000 0.904000 71.035004 # H
169 1 0.000000 0.000000 0.000000 72.327003 # C
170 2 0.000000 -0.749000 1.111000 72.327003 # F
171 2 0.000000 -0.749000 -1.111000 72.327003 # F
172 1 0.000000 0.839000 0.000000 73.619003 # C
173 2 0.000000 1.588000 -1.111000 73.619003 # F
174 3 0.000000 1.448000 0.904000 73.619003 # H
175 1 0.000000 0.000000 0.000000 74.910004 # C
176 2 0.000000 -0.749000 1.111000 74.910004 # F
177 2 0.000000 -0.749000 -1.111000 74.910004 # F
178 1 0.000000 0.839000 0.000000 76.202003 # C
179 3 0.000000 1.448000 -0.904000 76.202003 # H
180 3 0.000000 1.448000 0.904000 76.202003 # H
181 1 0.000000 0.000000 0.000000 77.492996 # C
182 2 0.000000 -0.749000 1.111000 77.492996 # F
183 2 0.000000 -0.749000 -1.111000 77.492996 # F
184 1 0.000000 0.839000 0.000000 78.785004 # C
185 3 0.000000 1.448000 -0.904000 78.785004 # H
186 3 0.000000 1.448000 0.904000 78.785004 # H
187 1 0.000000 0.000000 0.000000 80.075996 # C
188 2 0.000000 -0.749000 1.111000 80.075996 # F
189 2 0.000000 -0.749000 -1.111000 80.075996 # F
190 1 0.000000 0.839000 0.000000 81.367996 # C
191 3 0.000000 1.448000 -0.904000 81.367996 # H
192 2 0.000000 1.588000 1.111000 81.367996 # F
193 1 0.000000 0.000000 0.000000 82.658997 # C
194 2 0.000000 -0.749000 1.111000 82.658997 # F
195 2 0.000000 -0.749000 -1.111000 82.658997 # F
196 1 0.000000 0.839000 0.000000 83.950996 # C
197 3 0.000000 1.448000 -0.904000 83.950996 # H
198 3 0.000000 1.448000 0.904000 83.950996 # H
199 1 0.000000 0.000000 0.000000 85.241997 # C
200 2 0.000000 -0.749000 1.111000 85.241997 # F
201 2 0.000000 -0.749000 -1.111000 85.241997 # F
202 1 0.000000 0.839000 0.000000 86.533997 # C
203 3 0.000000 1.448000 -0.904000 86.533997 # H
204 3 0.000000 1.448000 0.904000 86.533997 # H
205 1 0.000000 0.000000 0.000000 87.825996 # C
206 2 0.000000 -0.749000 1.111000 87.825996 # F
207 2 0.000000 -0.749000 -1.111000 87.825996 # F
208 1 0.000000 0.839000 0.000000 89.116997 # C
209 2 0.000000 1.588000 -1.111000 89.116997 # F
210 3 0.000000 1.448000 0.904000 89.116997 # H
211 1 0.000000 0.000000 0.000000 90.408997 # C
212 2 0.000000 -0.749000 1.111000 90.408997 # F
213 2 0.000000 -0.749000 -1.111000 90.408997 # F
214 1 0.000000 0.839000 0.000000 91.699997 # C
215 3 0.000000 1.448000 -0.904000 91.699997 # H
216 3 0.000000 1.448000 0.904000 91.699997 # H
217 1 0.000000 0.000000 0.000000 92.991997 # C
218 2 0.000000 -0.749000 1.111000 92.991997 # F
219 2 0.000000 -0.749000 -1.111000 92.991997 # F
220 1 0.000000 0.839000 0.000000 94.282997 # C
221 3 0.000000 1.448000 -0.904000 94.282997 # H
222 3 0.000000 1.448000 0.904000 94.282997 # H
223 1 0.000000 0.000000 0.000000 95.574997 # C
224 2 0.000000 -0.749000 1.111000 95.574997 # F
225 2 0.000000 -0.749000 -1.111000 95.574997 # F
226 1 0.000000 0.839000 0.000000 96.865997 # C
227 3 0.000000 1.448000 -0.904000 96.865997 # H
228 2 0.000000 1.588000 1.111000 96.865997 # F
229 1 0.000000 0.000000 0.000000 98.157997 # C
230 2 0.000000 -0.749000 1.111000 98.157997 # F
231 2 0.000000 -0.749000 -1.111000 98.157997 # F
232 1 0.000000 0.839000 0.000000 99.449997 # C
233 3 0.000000 1.448000 -0.904000 99.449997 # H
234 3 0.000000 1.448000 0.904000 99.449997 # H
235 1 0.000000 0.000000 0.000000 100.740997 # C
236 2 0.000000 -0.749000 1.111000 100.740997 # F
237 2 0.000000 -0.749000 -1.111000 100.740997 # F
238 1 0.000000 0.839000 0.000000 102.032997 # C
239 3 0.000000 1.448000 -0.904000 102.032997 # H
240 3 0.000000 1.448000 0.904000 102.032997 # H
241 1 0.000000 0.000000 0.000000 103.323997 # C
242 2 0.000000 -0.749000 1.111000 103.323997 # F
243 2 0.000000 -0.749000 -1.111000 103.323997 # F
244 1 0.000000 0.839000 0.000000 104.615997 # C
245 2 0.000000 1.588000 -1.111000 104.615997 # F
246 3 0.000000 1.448000 0.904000 104.615997 # H
247 1 0.000000 0.000000 0.000000 105.906998 # C
248 2 0.000000 -0.749000 1.111000 105.906998 # F
249 2 0.000000 -0.749000 -1.111000 105.906998 # F
250 1 0.000000 0.839000 0.000000 107.198997 # C
251 3 0.000000 1.448000 -0.904000 107.198997 # H
252 3 0.000000 1.448000 0.904000 107.198997 # H
253 1 0.000000 0.000000 0.000000 108.489998 # C
254 2 0.000000 -0.749000 1.111000 108.489998 # F
255 2 0.000000 -0.749000 -1.111000 108.489998 # F
256 1 0.000000 0.839000 0.000000 109.781998 # C
257 3 0.000000 1.448000 -0.904000 109.781998 # H
258 3 0.000000 1.448000 0.904000 109.781998 # H
259 1 0.000000 0.000000 0.000000 111.073997 # C
260 2 0.000000 -0.749000 1.111000 111.073997 # F
261 2 0.000000 -0.749000 -1.111000 111.073997 # F
262 1 0.000000 0.839000 0.000000 112.364998 # C
263 3 0.000000 1.448000 -0.904000 112.364998 # H
264 2 0.000000 1.588000 1.111000 112.364998 # F
265 1 0.000000 0.000000 0.000000 113.656998 # C
266 2 0.000000 -0.749000 1.111000 113.656998 # F
267 2 0.000000 -0.749000 -1.111000 113.656998 # F
268 1 0.000000 0.839000 0.000000 114.947998 # C
269 3 0.000000 1.448000 -0.904000 114.947998 # H
270 3 0.000000 1.448000 0.904000 114.947998 # H
271 1 0.000000 0.000000 0.000000 116.239998 # C
272 2 0.000000 -0.749000 1.111000 116.239998 # F
273 2 0.000000 -0.749000 -1.111000 116.239998 # F
274 1 0.000000 0.839000 0.000000 117.530998 # C
275 3 0.000000 1.448000 -0.904000 117.530998 # H
276 3 0.000000 1.448000 0.904000 117.530998 # H
277 1 0.000000 0.000000 0.000000 118.822998 # C
278 2 0.000000 -0.749000 1.111000 118.822998 # F
279 2 0.000000 -0.749000 -1.111000 118.822998 # F
280 1 0.000000 0.839000 0.000000 120.113998 # C
281 2 0.000000 1.588000 -1.111000 120.113998 # F
282 3 0.000000 1.448000 0.904000 120.113998 # H
283 1 0.000000 0.000000 0.000000 121.405998 # C
284 2 0.000000 -0.749000 1.111000 121.405998 # F
285 2 0.000000 -0.749000 -1.111000 121.405998 # F
286 1 0.000000 0.839000 0.000000 122.697998 # C
287 3 0.000000 1.448000 -0.904000 122.697998 # H
288 3 0.000000 1.448000 0.904000 122.697998 # H
289 1 0.000000 0.000000 0.000000 123.993599 # C
290 2 0.000000 -0.749000 1.111000 123.993599 # F
291 2 0.000000 -0.749000 -1.111000 123.993599 # F
292 1 0.000000 0.839000 0.000000 125.285599 # C
293 3 0.000000 1.448000 -0.904000 125.285599 # H
294 3 0.000000 1.448000 0.904000 125.285599 # H
295 1 0.000000 0.000000 0.000000 126.576599 # C
296 2 0.000000 -0.749000 1.111000 126.576599 # F
297 2 0.000000 -0.749000 -1.111000 126.576599 # F
298 1 0.000000 0.839000 0.000000 127.868599 # C
299 3 0.000000 1.448000 -0.904000 127.868599 # H
300 3 0.000000 1.448000 0.904000 127.868599 # H
301 1 0.000000 0.000000 0.000000 129.159607 # C
302 2 0.000000 -0.749000 1.111000 129.159607 # F
303 2 0.000000 -0.749000 -1.111000 129.159607 # F
304 1 0.000000 0.839000 0.000000 130.451599 # C
305 3 0.000000 1.448000 -0.904000 130.451599 # H
306 3 0.000000 1.448000 0.904000 130.451599 # H
307 1 0.000000 0.000000 0.000000 131.742599 # C
308 2 0.000000 -0.749000 1.111000 131.742599 # F
309 2 0.000000 -0.749000 -1.111000 131.742599 # F
310 1 0.000000 0.839000 0.000000 133.034607 # C
311 3 0.000000 1.448000 -0.904000 133.034607 # H
312 3 0.000000 1.448000 0.904000 133.034607 # H
313 1 0.000000 0.000000 0.000000 134.325607 # C
314 2 0.000000 -0.749000 1.111000 134.325607 # F
315 2 0.000000 -0.749000 -1.111000 134.325607 # F
316 1 0.000000 0.839000 0.000000 135.617599 # C
317 2 0.000000 1.588000 -1.111000 135.617599 # F
318 3 0.000000 1.448000 0.904000 135.617599 # H
319 1 0.000000 0.000000 0.000000 136.909607 # C
320 2 0.000000 -0.749000 1.111000 136.909607 # F
321 2 0.000000 -0.749000 -1.111000 136.909607 # F
322 1 0.000000 0.839000 0.000000 138.200607 # C
323 3 0.000000 1.448000 -0.904000 138.200607 # H
324 3 0.000000 1.448000 0.904000 138.200607 # H
325 1 0.000000 0.000000 0.000000 139.492599 # C
326 2 0.000000 -0.749000 1.111000 139.492599 # F
327 2 0.000000 -0.749000 -1.111000 139.492599 # F
328 1 0.000000 0.839000 0.000000 140.783600 # C
329 3 0.000000 1.448000 -0.904000 140.783600 # H
330 3 0.000000 1.448000 0.904000 140.783600 # H
331 1 0.000000 0.000000 0.000000 142.075607 # C
332 2 0.000000 -0.749000 1.111000 142.075607 # F
333 2 0.000000 -0.749000 -1.111000 142.075607 # F
334 1 0.000000 0.839000 0.000000 143.366592 # C
335 3 0.000000 1.448000 -0.904000 143.366592 # H
336 2 0.000000 1.588000 1.111000 143.366592 # F
337 1 0.000000 0.000000 0.000000 144.658600 # C
338 2 0.000000 -0.749000 1.111000 144.658600 # F
339 2 0.000000 -0.749000 -1.111000 144.658600 # F
340 1 0.000000 0.839000 0.000000 145.949600 # C
341 3 0.000000 1.448000 -0.904000 145.949600 # H
342 3 0.000000 1.448000 0.904000 145.949600 # H
343 1 0.000000 0.000000 0.000000 147.241592 # C
344 2 0.000000 -0.749000 1.111000 147.241592 # F
345 2 0.000000 -0.749000 -1.111000 147.241592 # F
346 1 0.000000 0.839000 0.000000 148.533600 # C
347 3 0.000000 1.448000 -0.904000 148.533600 # H
348 3 0.000000 1.448000 0.904000 148.533600 # H
349 1 0.000000 0.000000 0.000000 149.824600 # C
350 2 0.000000 -0.749000 1.111000 149.824600 # F
351 2 0.000000 -0.749000 -1.111000 149.824600 # F
352 1 0.000000 0.839000 0.000000 151.116592 # C
353 2 0.000000 1.588000 -1.111000 151.116592 # F
354 3 0.000000 1.448000 0.904000 151.116592 # H
355 1 0.000000 0.000000 0.000000 152.407593 # C
356 2 0.000000 -0.749000 1.111000 152.407593 # F
357 2 0.000000 -0.749000 -1.111000 152.407593 # F
358 1 0.000000 0.839000 0.000000 153.699600 # C
359 3 0.000000 1.448000 -0.904000 153.699600 # H
360 3 0.000000 1.448000 0.904000 153.699600 # H
361 1 0.000000 0.000000 0.000000 154.990601 # C
362 2 0.000000 -0.749000 1.111000 154.990601 # F
363 2 0.000000 -0.749000 -1.111000 154.990601 # F
364 1 0.000000 0.839000 0.000000 156.282593 # C
365 3 0.000000 1.448000 -0.904000 156.282593 # H
366 3 0.000000 1.448000 0.904000 156.282593 # H
367 1 0.000000 0.000000 0.000000 157.573593 # C
368 2 0.000000 -0.749000 1.111000 157.573593 # F
369 2 0.000000 -0.749000 -1.111000 157.573593 # F
370 1 0.000000 0.839000 0.000000 158.865601 # C
371 3 0.000000 1.448000 -0.904000 158.865601 # H
372 2 0.000000 1.588000 1.111000 158.865601 # F
373 1 0.000000 0.000000 0.000000 160.156601 # C
374 2 0.000000 -0.749000 1.111000 160.156601 # F
375 2 0.000000 -0.749000 -1.111000 160.156601 # F
376 1 0.000000 0.839000 0.000000 161.448593 # C
377 3 0.000000 1.448000 -0.904000 161.448593 # H
378 3 0.000000 1.448000 0.904000 161.448593 # H
379 1 0.000000 0.000000 0.000000 162.740601 # C
380 2 0.000000 -0.749000 1.111000 162.740601 # F
381 2 0.000000 -0.749000 -1.111000 162.740601 # F
382 1 0.000000 0.839000 0.000000 164.031601 # C
383 3 0.000000 1.448000 -0.904000 164.031601 # H
384 3 0.000000 1.448000 0.904000 164.031601 # H
385 1 0.000000 0.000000 0.000000 165.323593 # C
386 2 0.000000 -0.749000 1.111000 165.323593 # F
387 2 0.000000 -0.749000 -1.111000 165.323593 # F
388 1 0.000000 0.839000 0.000000 166.614594 # C
389 2 0.000000 1.588000 -1.111000 166.614594 # F
390 3 0.000000 1.448000 0.904000 166.614594 # H
391 1 0.000000 0.000000 0.000000 167.906601 # C
392 2 0.000000 -0.749000 1.111000 167.906601 # F
393 2 0.000000 -0.749000 -1.111000 167.906601 # F
394 1 0.000000 0.839000 0.000000 169.197601 # C
395 3 0.000000 1.448000 -0.904000 169.197601 # H
396 3 0.000000 1.448000 0.904000 169.197601 # H
397 1 0.000000 0.000000 0.000000 170.489594 # C
398 2 0.000000 -0.749000 1.111000 170.489594 # F
399 2 0.000000 -0.749000 -1.111000 170.489594 # F
400 1 0.000000 0.839000 0.000000 171.780594 # C
401 3 0.000000 1.448000 -0.904000 171.780594 # H
402 3 0.000000 1.448000 0.904000 171.780594 # H
403 1 0.000000 0.000000 0.000000 173.072601 # C
404 2 0.000000 -0.749000 1.111000 173.072601 # F
405 2 0.000000 -0.749000 -1.111000 173.072601 # F
406 1 0.000000 0.839000 0.000000 174.364594 # C
407 3 0.000000 1.448000 -0.904000 174.364594 # H
408 2 0.000000 1.588000 1.111000 174.364594 # F
409 1 0.000000 0.000000 0.000000 175.655594 # C
410 2 0.000000 -0.749000 1.111000 175.655594 # F
411 2 0.000000 -0.749000 -1.111000 175.655594 # F
412 1 0.000000 0.839000 0.000000 176.947601 # C
413 3 0.000000 1.448000 -0.904000 176.947601 # H
414 3 0.000000 1.448000 0.904000 176.947601 # H
415 1 0.000000 0.000000 0.000000 178.238602 # C
416 2 0.000000 -0.749000 1.111000 178.238602 # F
417 2 0.000000 -0.749000 -1.111000 178.238602 # F
418 1 0.000000 0.839000 0.000000 179.530594 # C
419 3 0.000000 1.448000 -0.904000 179.530594 # H
420 3 0.000000 1.448000 0.904000 179.530594 # H
421 1 0.000000 0.000000 0.000000 180.821594 # C
422 2 0.000000 -0.749000 1.111000 180.821594 # F
423 2 0.000000 -0.749000 -1.111000 180.821594 # F
424 1 0.000000 0.839000 0.000000 182.113602 # C
425 2 0.000000 1.588000 -1.111000 182.113602 # F
426 3 0.000000 1.448000 0.904000 182.113602 # H
427 1 0.000000 0.000000 0.000000 183.404602 # C
428 2 0.000000 -0.749000 1.111000 183.404602 # F
429 2 0.000000 -0.749000 -1.111000 183.404602 # F
430 1 0.000000 0.839000 0.000000 184.696594 # C
431 3 0.000000 1.448000 -0.904000 184.696594 # H
432 3 0.000000 1.448000 0.904000 184.696594 # H
433 1 0.000000 0.000000 0.000000 185.988602 # C
434 2 0.000000 -0.749000 1.111000 185.988602 # F
435 2 0.000000 -0.749000 -1.111000 185.988602 # F
436 1 0.000000 0.839000 0.000000 187.279602 # C
437 3 0.000000 1.448000 -0.904000 187.279602 # H
438 3 0.000000 1.448000 0.904000 187.279602 # H
439 1 0.000000 0.000000 0.000000 188.571594 # C
440 2 0.000000 -0.749000 1.111000 188.571594 # F
441 2 0.000000 -0.749000 -1.111000 188.571594 # F
442 1 0.000000 0.839000 0.000000 189.862595 # C
443 3 0.000000 1.448000 -0.904000 189.862595 # H
444 3 0.000000 1.448000 0.904000 189.862595 # H
445 1 0.000000 0.000000 0.000000 191.154602 # C
446 2 0.000000 -0.749000 1.111000 191.154602 # F
447 2 0.000000 -0.749000 -1.111000 191.154602 # F
448 1 0.000000 0.839000 0.000000 192.445602 # C
449 3 0.000000 1.448000 -0.904000 192.445602 # H
450 3 0.000000 1.448000 0.904000 192.445602 # H
451 1 0.000000 0.000000 0.000000 193.737595 # C
452 2 0.000000 -0.749000 1.111000 193.737595 # F
453 2 0.000000 -0.749000 -1.111000 193.737595 # F
454 1 0.000000 0.839000 0.000000 195.028595 # C
455 3 0.000000 1.448000 -0.904000 195.028595 # H
456 3 0.000000 1.448000 0.904000 195.028595 # H
457 1 0.000000 0.000000 0.000000 196.320602 # C
458 2 0.000000 -0.749000 1.111000 196.320602 # F
459 2 0.000000 -0.749000 -1.111000 196.320602 # F
460 1 0.000000 0.839000 0.000000 197.612595 # C
461 2 0.000000 1.588000 -1.111000 197.612595 # F
462 3 0.000000 1.448000 0.904000 197.612595 # H
463 1 0.000000 0.000000 0.000000 198.903595 # C
464 2 0.000000 -0.749000 1.111000 198.903595 # F
465 2 0.000000 -0.749000 -1.111000 198.903595 # F
466 1 0.000000 0.839000 0.000000 200.195602 # C
467 3 0.000000 1.448000 -0.904000 200.195602 # H
468 3 0.000000 1.448000 0.904000 200.195602 # H
469 1 0.000000 0.000000 0.000000 201.486603 # C
470 2 0.000000 -0.749000 1.111000 201.486603 # F
471 2 0.000000 -0.749000 -1.111000 201.486603 # F
472 1 0.000000 0.839000 0.000000 202.778595 # C
473 3 0.000000 1.448000 -0.904000 202.778595 # H
474 3 0.000000 1.448000 0.904000 202.778595 # H
475 1 0.000000 0.000000 0.000000 204.069595 # C
476 2 0.000000 -0.749000 1.111000 204.069595 # F
477 2 0.000000 -0.749000 -1.111000 204.069595 # F
478 1 0.000000 0.839000 0.000000 205.361603 # C
479 3 0.000000 1.448000 -0.904000 205.361603 # H
480 2 0.000000 1.588000 1.111000 205.361603 # F
481 1 0.000000 0.000000 0.000000 206.652603 # C
482 2 0.000000 -0.749000 1.111000 206.652603 # F
483 2 0.000000 -0.749000 -1.111000 206.652603 # F
484 1 0.000000 0.839000 0.000000 207.944595 # C
485 3 0.000000 1.448000 -0.904000 207.944595 # H
486 3 0.000000 1.448000 0.904000 207.944595 # H
487 1 0.000000 0.000000 0.000000 209.235596 # C
488 2 0.000000 -0.749000 1.111000 209.235596 # F
489 2 0.000000 -0.749000 -1.111000 209.235596 # F
490 1 0.000000 0.839000 0.000000 210.527603 # C
491 3 0.000000 1.448000 -0.904000 210.527603 # H
492 3 0.000000 1.448000 0.904000 210.527603 # H
493 1 0.000000 0.000000 0.000000 211.819595 # C
494 2 0.000000 -0.749000 1.111000 211.819595 # F
495 2 0.000000 -0.749000 -1.111000 211.819595 # F
496 1 0.000000 0.839000 0.000000 213.110596 # C
497 2 0.000000 1.588000 -1.111000 213.110596 # F
498 3 0.000000 1.448000 0.904000 213.110596 # H
499 1 0.000000 0.000000 0.000000 214.402603 # C
500 2 0.000000 -0.749000 1.111000 214.402603 # F
501 2 0.000000 -0.749000 -1.111000 214.402603 # F
502 1 0.000000 0.839000 0.000000 215.693604 # C
503 3 0.000000 1.448000 -0.904000 215.693604 # H
504 3 0.000000 1.448000 0.904000 215.693604 # H
505 1 0.000000 0.000000 0.000000 216.985596 # C
506 2 0.000000 -0.749000 1.111000 216.985596 # F
507 2 0.000000 -0.749000 -1.111000 216.985596 # F
508 1 0.000000 0.839000 0.000000 218.276596 # C
509 3 0.000000 1.448000 -0.904000 218.276596 # H
510 3 0.000000 1.448000 0.904000 218.276596 # H
511 1 0.000000 0.000000 0.000000 219.568604 # C
512 2 0.000000 -0.749000 1.111000 219.568604 # F
513 2 0.000000 -0.749000 -1.111000 219.568604 # F
514 1 0.000000 0.839000 0.000000 220.859604 # C
515 3 0.000000 1.448000 -0.904000 220.859604 # H
516 2 0.000000 1.588000 1.111000 220.859604 # F
517 1 0.000000 0.000000 0.000000 222.151596 # C
518 2 0.000000 -0.749000 1.111000 222.151596 # F
519 2 0.000000 -0.749000 -1.111000 222.151596 # F
520 1 0.000000 0.839000 0.000000 223.443604 # C
521 3 0.000000 1.448000 -0.904000 223.443604 # H
522 3 0.000000 1.448000 0.904000 223.443604 # H
523 1 0.000000 0.000000 0.000000 224.734604 # C
524 2 0.000000 -0.749000 1.111000 224.734604 # F
525 2 0.000000 -0.749000 -1.111000 224.734604 # F
526 1 0.000000 0.839000 0.000000 226.026596 # C
527 3 0.000000 1.448000 -0.904000 226.026596 # H
528 3 0.000000 1.448000 0.904000 226.026596 # H
529 1 0.000000 0.000000 0.000000 227.317596 # C
530 2 0.000000 -0.749000 1.111000 227.317596 # F
531 2 0.000000 -0.749000 -1.111000 227.317596 # F
532 1 0.000000 0.839000 0.000000 228.609604 # C
533 2 0.000000 1.588000 -1.111000 228.609604 # F
534 3 0.000000 1.448000 0.904000 228.609604 # H
535 1 0.000000 0.000000 0.000000 229.900604 # C
536 2 0.000000 -0.749000 1.111000 229.900604 # F
537 2 0.000000 -0.749000 -1.111000 229.900604 # F
538 1 0.000000 0.839000 0.000000 231.192596 # C
539 3 0.000000 1.448000 -0.904000 231.192596 # H
540 3 0.000000 1.448000 0.904000 231.192596 # H
541 1 0.000000 0.000000 0.000000 232.483597 # C
542 2 0.000000 -0.749000 1.111000 232.483597 # F
543 2 0.000000 -0.749000 -1.111000 232.483597 # F
544 1 0.000000 0.839000 0.000000 233.775604 # C
545 3 0.000000 1.448000 -0.904000 233.775604 # H
546 3 0.000000 1.448000 0.904000 233.775604 # H
547 1 0.000000 0.000000 0.000000 235.067596 # C
548 2 0.000000 -0.749000 1.111000 235.067596 # F
549 2 0.000000 -0.749000 -1.111000 235.067596 # F
550 1 0.000000 0.839000 0.000000 236.358597 # C
551 3 0.000000 1.448000 -0.904000 236.358597 # H
552 2 0.000000 1.588000 1.111000 236.358597 # F
553 1 0.000000 0.000000 0.000000 237.650604 # C
554 2 0.000000 -0.749000 1.111000 237.650604 # F
555 2 0.000000 -0.749000 -1.111000 237.650604 # F
556 1 0.000000 0.839000 0.000000 238.941605 # C
557 3 0.000000 1.448000 -0.904000 238.941605 # H
558 3 0.000000 1.448000 0.904000 238.941605 # H
559 1 0.000000 0.000000 0.000000 240.233597 # C
560 2 0.000000 -0.749000 1.111000 240.233597 # F
561 2 0.000000 -0.749000 -1.111000 240.233597 # F
562 1 0.000000 0.839000 0.000000 241.524597 # C
563 3 0.000000 1.448000 -0.904000 241.524597 # H
564 3 0.000000 1.448000 0.904000 241.524597 # H
565 1 0.000000 0.000000 0.000000 242.816605 # C
566 2 0.000000 -0.749000 1.111000 242.816605 # F
567 2 0.000000 -0.749000 -1.111000 242.816605 # F
568 1 0.000000 0.839000 0.000000 244.107605 # C
569 2 0.000000 1.588000 -1.111000 244.107605 # F
570 3 0.000000 1.448000 0.904000 244.107605 # H
571 1 0.000000 0.000000 0.000000 245.399597 # C
572 2 0.000000 -0.749000 1.111000 245.399597 # F
573 2 0.000000 -0.749000 -1.111000 245.399597 # F
574 1 0.000000 0.839000 0.000000 246.691605 # C
575 3 0.000000 1.448000 -0.904000 246.691605 # H
576 3 0.000000 1.448000 0.904000 246.691605 # H
577 1 0.000000 2.112000 3.869000 0.000000 # C
578 2 0.000000 1.363000 4.980000 0.000000 # F
579 2 0.000000 1.363000 2.758000 0.000000 # F
580 1 0.000000 2.951000 3.869000 1.292000 # C
581 3 0.000000 3.560000 2.965000 1.292000 # H
582 3 0.000000 3.560000 4.773000 1.292000 # H
583 1 0.000000 2.112000 3.869000 2.583000 # C
584 2 0.000000 1.363000 4.980000 2.583000 # F
585 2 0.000000 1.363000 2.758000 2.583000 # F
586 1 0.000000 2.951000 3.869000 3.875000 # C
587 3 0.000000 3.560000 2.965000 3.875000 # H
588 3 0.000000 3.560000 4.773000 3.875000 # H
589 1 0.000000 2.112000 3.869000 5.166000 # C
590 2 0.000000 1.363000 4.980000 5.166000 # F
591 2 0.000000 1.363000 2.758000 5.166000 # F
592 1 0.000000 2.951000 3.869000 6.458000 # C
593 3 0.000000 3.560000 2.965000 6.458000 # H
594 3 0.000000 3.560000 4.773000 6.458000 # H
595 1 0.000000 2.112000 3.869000 7.749000 # C
596 2 0.000000 1.363000 4.980000 7.749000 # F
597 2 0.000000 1.363000 2.758000 7.749000 # F
598 1 0.000000 2.951000 3.869000 9.041000 # C
599 3 0.000000 3.560000 2.965000 9.041000 # H
600 3 0.000000 3.560000 4.773000 9.041000 # H
601 1 0.000000 2.112000 3.869000 10.332000 # C
602 2 0.000000 1.363000 4.980000 10.332000 # F
603 2 0.000000 1.363000 2.758000 10.332000 # F
604 1 0.000000 2.951000 3.869000 11.624000 # C
605 2 0.000000 3.700000 2.758000 11.624000 # F
606 3 0.000000 3.560000 4.773000 11.624000 # H
607 1 0.000000 2.112000 3.869000 12.916000 # C
608 2 0.000000 1.363000 4.980000 12.916000 # F
609 2 0.000000 1.363000 2.758000 12.916000 # F
610 1 0.000000 2.951000 3.869000 14.207000 # C
611 3 0.000000 3.560000 2.965000 14.207000 # H
612 3 0.000000 3.560000 4.773000 14.207000 # H
613 1 0.000000 2.112000 3.869000 15.499000 # C
614 2 0.000000 1.363000 4.980000 15.499000 # F
615 2 0.000000 1.363000 2.758000 15.499000 # F
616 1 0.000000 2.951000 3.869000 16.790001 # C