LAMMPS (2 Aug 2023 - Development - patch_2Aug2023-289-gafabb279a3)
  using 1 OpenMP thread(s) per MPI task
# REAX potential for
# .....

boundary        p p p
units           real

atom_style      charge
read_data       ./lmp.data
Reading data file ...
  orthogonal box = (-0.636 -1.9345 -0.647798) to (3.587 5.8035 247.3394)
  1 by 1 by 32 MPI processor grid
  reading atoms ...
  1152 atoms
  read_data CPU = 0.052 seconds
#read_data       ./final.lammps
replicate       1 1 1
Replication is creating a 1x1x1 = 1 times larger system...
  orthogonal box = (-0.636 -1.9345 -0.647798) to (3.587 5.8035 247.3394)
  1 by 1 by 32 MPI processor grid
  1152 atoms
  replicate CPU = 0.002 seconds

#change_box all triclinic
pair_style      reax/c NULL
pair_coeff      * * ../../../ForceFiledFiles/ffield.reax.FC C F H
Reading potential file ../../../ForceFiledFiles/ffield.reax.FC with DATE: 2013-06-28
WARNING: Changed valency_val to valency_boc for X (src/REAXFF/reaxff_ffield.cpp:296)
neighbor        2. bin
neigh_modify    every 10 delay 0 check no
fix             q all qeq/reax 1 0.0 10.0 1e-6 reax/c

variable        dt_MD equal 0.5
variable        dt_MIN equal 10*v_dt_MD
timestep        ${dt_MD}
timestep        0.5
thermo_style    custom step temp epair etotal press fmax fnorm density
thermo          20
write_data      init.lmpdata
System init for write_data ...
Neighbor list info ...
  update: every = 10 steps, delay = 0 steps, check = no
  max neighbors/atom: 2000, page size: 100000
  master list distance cutoff = 12
  ghost atom cutoff = 12
  binsize = 6, bins = 1 2 42
  2 neighbor lists, perpetual/occasional/extra = 2 0 0
  (1) pair reax/c, perpetual
      attributes: half, newton off, ghost
      pair build: half/bin/newtoff/ghost
      stencil: full/ghost/bin/3d
      bin: standard
  (2) fix qeq/reax, perpetual, copy from (1)
      attributes: half, newton off
      pair build: copy
      stencil: none
      bin: none
variable        Tdamp equal 100*dt
variable        Pdamp equal 1000*dt
compute         Mu all property/atom xu yu zu
variable        qx atom q*c_Mu[1]
variable        qy atom q*c_Mu[2]
variable        qz atom q*c_Mu[3]
compute         Mx all reduce sum v_qx
compute         My all reduce sum v_qy
compute         Mz all reduce sum v_qz
thermo_style    custom step temp epair etotal press fmax fnorm density vol c_Mx c_My c_Mz
dump            dcd all dcd 200 dump.dcd
dump_modify     dcd unwrap yes
dump            qxyz all custom 20 dump.qxyz.txt id q xu yu zu
dump_modify     qxyz sort id
dump            xyz_form all xyz 100 dump.xyz
dump_modify     xyz_form sort id

variable        T0 equal 300
variable        T1 equal 300
timestep        ${dt_MD}
timestep        0.5
#fix             npt all npt temp ${T0} ${T1} ${Tdamp}  aniso 0 0 ${Pdamp}
fix             npt all npt temp ${T0} ${T1} ${Tdamp}  iso 0 0 ${Pdamp}
fix             npt all npt temp 300 ${T1} ${Tdamp}  iso 0 0 ${Pdamp}
fix             npt all npt temp 300 300 ${Tdamp}  iso 0 0 ${Pdamp}
fix             npt all npt temp 300 300 50  iso 0 0 ${Pdamp}
fix             npt all npt temp 300 300 50  iso 0 0 500
fix             mom all momentum 1 linear 1 1 1
run             40000

CITE-CITE-CITE-CITE-CITE-CITE-CITE-CITE-CITE-CITE-CITE-CITE-CITE

Your simulation uses code contributions which should be cited:

- pair reaxff command: doi:10.1016/j.parco.2011.08.005

@Article{Aktulga12,
 author = {H. M. Aktulga and J. C. Fogarty and S. A. Pandit and A. Y. Grama},
 title = {Parallel Reactive Molecular Dynamics: {N}umerical Methods and Algorithmic Techniques},
 journal = {Parallel Computing},
 year =    2012,
 volume =  38,
 number =  {4--5},
 pages =   {245--259}
}

- fix qeq/reaxff command: doi:10.1016/j.parco.2011.08.005

@Article{Aktulga12,
 author = {H. M. Aktulga and J. C. Fogarty and S. A. Pandit and A. Y. Grama},
 title = {Parallel Reactive Molecular Dynamics: {N}umerical Methods and Algorithmic Techniques},
 journal = {Parallel Computing},
 year =    2012,
 volume =  38,
 pages =   {245--259}
}

CITE-CITE-CITE-CITE-CITE-CITE-CITE-CITE-CITE-CITE-CITE-CITE-CITE

Per MPI rank memory allocation (min/avg/max) = 66.32 | 66.32 | 66.32 Mbytes
   Step          Temp          E_pair         TotEng         Press           Fmax          Fnorm         Density         Volume          c_Mx           c_My           c_Mz     
         0   0             -117881.92     -117881.92      2331409        1554.0807      25622.413      2.725758       8103.62        112.36206      2.8071624      60.662637    
        20   1530.3549     -122607.43     -117356.91      27449.307      341.5215       4689.8521      2.6174616      8438.9038      123.79607      2.8468118      64.2869      
        40   1473.3168     -123185.21     -118130.39     -69748.463      154.2184       2710.3885      2.5298182      8731.2627      121.67175      2.6923742      59.055791    
        60   1320.6663     -123746.32     -119215.23      133624.47      182.49881      2640.2269      2.4778427      8914.4105      110.74174      3.6028664      53.349146    
        80   1415.771      -125227.41     -120370.03     -146589.01      213.6774       2921.3574      2.3881175      9249.3382      114.12245      4.1788683      47.175221    
       100   846.50523     -123773.23     -120868.95     -33370.392      507.87576      4836.5156      2.3489787      9403.4514      106.13892      3.712981       52.596344    
       120   1286.9968     -125872.01     -121456.43     -1334.4294      212.27605      2700.0866      2.3145067      9543.5053      102.76091      4.5317584      56.618411    
       140   684.20438     -124498.47     -122151.03     -33713.331      1004.6923      4778.3174      2.2850618      9666.4811      106.41265      4.2801175      56.126142    
       160   931.26004     -125660.18     -122465.11     -86639.646      455.71794      3311.7945      2.270422       9728.8113      108.23617      3.7592748      47.1331      
       180   677.3108      -125281.47     -122957.68     -4934.3985      411.0233       3390.4553      2.2709027      9726.7517      98.368959      3.8033161      57.216161    
       200   846.0744      -126254.85     -123352.04      105296.75      1251.9302      7162.2362      2.2586672      9779.443       101.43762      4.4024913      52.796525    
       220   665.44183     -126007.25     -123724.18     -40016.236      1253.9957      4734.0867      2.2565995      9788.4038      107.17021      3.5853639      61.176466    
       240   735.15121     -126601.75     -124079.51     -39178.802      320.03054      2693.7801      2.2688773      9735.4347      104.2696       3.9167811      51.505002    
       260   621.21846     -126508.42     -124377.07     -27120.313      270.14608      2574.611       2.2776806      9697.8071      102.99761      3.8955684      57.645589    
       280   553.68193     -126604.37     -124704.74      9676.8241      1138.8336      4855.1111      2.2940453      9628.6272      104.79024      3.3304911      52.222672    
       300   593.59652     -126979.28     -124942.71     -37565.908      268.17902      2657.2949      2.3139862      9545.6521      109.22755      3.7063675      56.539735    
       320   488.06506     -126878.77     -125204.26     -244.67546      205.55639      2371.2332      2.3315917      9473.5739      104.65798      4.0144357      54.4285      
       340   512.58179     -127145.08     -125386.46     -19965.722      224.12162      2295.4949      2.343645       9424.8517      108.13218      2.8349908      55.78351     
       360   415.14171     -127002.35     -125578.03      13690.48       373.34778      2674.7546      2.351511       9393.3251      111.44773      2.7158945      56.013288    
       380   452.74051     -127289.74     -125736.42      6668.2921      615.77037      3002.5992      2.3530463      9387.196       107.55248      4.0047912      59.607647    
       400   418.04887     -127327.39     -125893.1      -12605.44       287.66566      2271.5577      2.3486719      9404.6796      108.86391      3.8589459      49.019974    
       420   375.76661     -127311.67     -126022.45     -9143.4655      207.98579      2213.6768      2.3481945      9406.5916      110.84252      2.9683043      52.807725    
       440   414.94933     -127584.46     -126160.81      40134.212      446.97742      2752.7717      2.3472619      9410.329       107.6746       2.9816709      54.334108    
       460   324.83531     -127390.18     -126275.7      -9579.1748      272.11125      2286.0847      2.3408039      9436.2909      105.27161      3.0587488      56.803986    
       480   331.77981     -127511.54     -126373.23     -31420.536      204.78102      2017.6625      2.3406488      9436.9165      108.1162       3.1804462      53.197171    
       500   329.00661     -127579.08     -126450.29      14128.235      259.73186      2050.9711      2.3451562      9418.7784      107.26512      3.0121083      50.921516    
       520   324.19756     -127637.51     -126525.22      785.08516      405.91892      2204.9466      2.3432187      9426.5664      104.77097      3.6419552      54.161351    
       540   317.77924     -127681.65     -126591.37      1686.8277      355.68535      2237.2735      2.3406328      9436.981       106.91308      3.2813478      52.702846    
       560   326.95955     -127780.84     -126659.07     -9582.4827      307.57199      1997.2995      2.3420388      9431.3153      106.87278      3.0136321      61.117572    
       580   295.67284     -127739.08     -126724.65      24223.069      328.49205      2238.9194      2.3428847      9427.9102      105.5125       3.9334268      53.974291    
       600   303.22442     -127818.78     -126778.45      7837.2398      254.15703      1884.8624      2.3411941      9434.7183      106.79937      4.2575941      57.624274    
       620   268.0574      -127740.56     -126820.88      1882.8513      357.2294       2011.0096      2.3378949      9448.0326      106.41212      4.1046487      53.549064    
       640   255.71963     -127734.56     -126857.21     -6090.7149      253.5977       1854.6106      2.3355753      9457.416       104.63085      3.7843584      52.060925    
       660   268.5829      -127799        -126877.52      3036.628       210.11451      1812.1397      2.3373224      9450.3466      106.14841      4.1088349      55.904988    
       680   249.24227     -127742.44     -126887.31      7020.9498      248.5233       1829.4609      2.3388155      9444.3136      107.37247      4.6900538      56.490511    
       700   277.75863     -127844.94     -126891.98     -5842.7457      241.99381      1775.4177      2.3368802      9452.1347      105.5324       4.9965858      56.602576    
       720   295.2172      -127900.53     -126887.66      5314.2805      300.28243      1990.4093      2.3391608      9442.9192      106.51806      4.8200552      53.409777    
       740   279.95721     -127834.55     -126874.04      42187.665      401.19216      2272.2585      2.3457842      9416.2568      108.44397      4.0244537      56.487219    
       760   272.40728     -127802.57     -126867.96      25644.195      469.75735      2338.7056      2.3479572      9407.5425      106.87134      4.1043517      53.716883    
       780   278.76463     -127808.81     -126852.4       4615.9723      327.6366       1941.4011      2.3467324      9412.4522      106.87811      4.7201814      54.910888    
       800   256.61908     -127710.14     -126829.7      -1241.0939      223.08164      1831.7864      2.3452981      9418.2087      107.21604      4.5142088      57.901872    
       820   276.64399     -127751.47     -126802.33     -2119.9441      233.40713      1897.0439      2.3439898      9423.4653      106.41977      3.5156346      52.528142    
       840   283.18659     -127738.02     -126766.43      16246.88       226.98375      2072.93        2.3452807      9418.2785      106.91946      2.8779772      56.409625    
       860   295.02756     -127737.99     -126725.78      9891.6723      253.88014      1932.1989      2.3421938      9430.6914      108.44418      2.5983317      54.359195    
       880   301.66259     -127720.76     -126685.78     -21223.542      220.37996      1934.0743      2.3375465      9449.4405      107.22076      2.8261936      57.725435    
       900   311.95252     -127720.8      -126650.52     -12286.844      283.79052      2138.542       2.3414761      9433.5821      106.59332      3.4270958      52.526462    
       920   321.45092     -127716.81     -126613.94      8763.5852      265.22014      2158.6977      2.3463149      9414.1272      109.34771      3.5644174      56.728911    
       940   311.74076     -127657.11     -126587.56     -1158.6227      341.34302      2066.9934      2.3451482      9418.8105      108.60151      2.5616975      57.622592    
       960   305.43182     -127609.09     -126561.18      16932.457      357.83986      2073.6386      2.3443459      9422.034       106.0277       2.6054841      55.228437    
       980   313.34048     -127618.34     -126543.3       14024.693      238.04163      2015.5057      2.3427533      9428.4392      106.91709      3.5359353      62.297073    
      1000   321.56088     -127630.59     -126527.34      8885.2049      217.52213      1994.6138      2.3393186      9442.2825      106.37586      4.516502       47.410439    
      1020   321.71671     -127621.12     -126517.34     -12790.59       244.90122      1987.2489      2.3354192      9458.0481      105.40224      4.5427295      60.073275    
      1040   337.71593     -127676.28     -126517.6      -4702.3995      328.02034      2085.0427      2.3297417      9481.097       105.904        3.8477507      55.837561    
      1060   309.83341     -127584.54     -126521.53     -7697.9477      350.25219      2191.2834      2.3231588      9507.9624      105.88972      4.2340966      57.534026    
      1080   317.79987     -127627.12     -126536.78     -14514.658      289.58227      2170.2204      2.3253166      9499.1396      104.59727      4.1625827      55.754774    
      1100   306.29707     -127597.04     -126546.16     -9952.3492      294.61251      2186.385       2.3315059      9473.9226      106.61619      5.2299872      57.572592    
      1120   324.90832     -127684.55     -126569.82     -24317.266      263.13197      2005.6637      2.3313571      9474.5274      106.67778      5.4059108      52.536004    
      1140   312.36365     -127669.02     -126597.33     -9859.8171      254.04987      1960.8837      2.3328261      9468.5613      105.63101      4.218121       51.113528    
      1160   306.16271     -127672.83     -126622.42      18906.556      180.53192      1942.2995      2.3409085      9435.8694      105.71225      3.6725221      52.913715    
      1180   297.06186     -127666.2      -126647        -12160.625      196.77413      1885.3341      2.3428844      9427.9116      107.31507      4.2458661      57.440825    
      1200   312.68639     -127746.8      -126674         3743.6571      269.48012      1885.7787      2.3451431      9418.831       107.31113      4.3688136      56.150625    
      1220   294.17602     -127708.62     -126699.33      7757.8423      246.81919      2014.4777      2.3470585      9411.1447      107.15168      3.2503683      52.01191     
      1240   294.6126      -127737        -126726.21     -28851.571      259.09624      1927.5783      2.3437798      9424.3098      108.85064      3.4758902      49.644327    
      1260   294.61564     -127765.3      -126754.5       5273.6654      222.6138       2006.4931      2.3465133      9413.3313      108.64172      3.1245436      51.932916    
      1280   270.18068     -127701.85     -126774.88      8311.1145      292.31982      2054.4149      2.3483056      9406.1464      108.6525       2.8648377      58.655977    
      1300   290.29203     -127789.24     -126793.28     -12095.307      270.61165      1951.7347      2.3443488      9422.0224      108.62158      3.9414693      55.880275    
      1320   274.95732     -127746.23     -126802.88      9725.3264      207.13217      1942.879       2.3438975      9423.8365      107.66187      3.9346355      56.824444    
      1340   282.95617     -127779.85     -126809.05      6434.1271      200.80214      1919.409       2.3453942      9417.8229      107.46746      3.2949329      56.017334    
      1360   283.74425     -127786.03     -126812.53      11890.657      278.16483      2048.3794      2.3449851      9419.4656      107.40067      3.4065462      53.01663     
      1380   286.18021     -127793.24     -126811.38      2849.3059      287.30907      1921.3037      2.3413063      9434.2661      106.93844      3.9002077      52.112208    
      1400   281.06949     -127767.48     -126803.16      2647.9149      281.89318      1906.3918      2.3386185      9445.1089      106.1593       4.3920088      57.572665    
      1420   290.08676     -127792.16     -126796.9      -3636.0104      227.3931       1939.8473      2.3373717      9450.1471      106.28768      4.4588224      57.995512    
      1440   279.9079      -127746.95     -126786.61     -11304.595      289.47207      1956.8239      2.3356703      9457.0311      106.78358      4.1345106      51.847342    
      1460   276.23743     -127718.36     -126770.61      17681.568      317.57138      2136.2231      2.336884       9452.1196      106.1511       3.4221575      52.540589    
      1480   275.70597     -127696.24     -126750.32      29661.216      332.57388      2238.8225      2.3360923      9455.3226      105.2288       3.3994696      53.264182    
      1500   280.67138     -127685.63     -126722.68     -27854.636      289.37224      1945.6145      2.3350922      9459.3726      105.555        3.8847069      54.406452    
      1520   308.87072     -127755.98     -126696.27      1343.3055      243.84238      1896.6472      2.341012       9435.4521      106.37924      4.2617618      54.39533     
      1540   305.10412     -127714.2      -126667.42      14971.972      326.68561      1981.1557      2.3440125      9423.374       106.40253      3.1404743      54.574404    
      1560   317.19553     -127728.91     -126640.64     -13292.602      248.44947      1879.5373      2.3414935      9433.512       106.56144      2.4367452      54.298264    
      1580   306.36022     -127673.25     -126622.16     -5057.2789      222.22894      1922.4936      2.3436384      9424.8783      106.96296      2.954962       55.075082    
      1600   308.3391      -127659.03     -126601.14      9680.0801      237.22455      2044.9709      2.3458475      9416.0028      107.49047      3.5571856      58.877512    
      1620   313.71603     -127662.06     -126585.73      3470.071       264.42816      2013.8392      2.3429863      9427.5014      107.96814      3.8871637      53.903899    
      1640   321.8628      -127675.96     -126571.68      2363.6581      331.67975      2069.7929      2.3404302      9437.7976      108.33862      3.7457072      57.00851     
      1660   313.20607     -127637.39     -126562.81      14556.526      360.63017      2101.9407      2.3389664      9443.704       107.4458       3.3481622      57.298061    
      1680   340.54448     -127723.84     -126555.46     -34528.477      176.85698      1884.4076      2.336562       9453.4222      107.77226      3.7420944      54.411111    
      1700   319.64617     -127654.56     -126557.88     -8953.1632      239.61374      1936.1084      2.3394181      9441.8807      108.49417      4.4063286      57.865407    
      1720   325.70109     -127680.88     -126563.43     -7538.1539      245.57419      2020.5568      2.3416214      9432.9967      108.1958       4.699769       53.955739    
      1740   312.13092     -127650.12     -126579.23      5554.2913      289.00851      2111.5834      2.342402       9429.8533      107.2093       4.1076687      53.781938    
      1760   300.1435      -127626.54     -126596.78     -4553.9042      311.19008      2067.5824      2.3463737      9413.8913      107.78486      3.7174266      53.021828    
      1780   306.71195     -127663.45     -126611.15      15731.593      253.54448      2098.1134      2.3516578      9392.7384      107.67858      3.6349274      52.556216    
      1800   312.82338     -127704.11     -126630.84      16772.71       250.78902      2025.9938      2.349908       9399.7326      106.98823      4.1546829      53.401759    
      1820   310.26573     -127713.49     -126648.99      3437.3202      246.17419      1933.5146      2.3452654      9418.3401      106.97271      4.2392836      53.887613    
      1840   322.62144     -127779.3      -126672.41      12025.667      319.44059      2048.9677      2.3442044      9422.6026      106.56111      3.3139284      56.070064    
      1860   310.05091     -127764.73     -126700.97     -7663.2677      289.01852      2005.5621      2.3419381      9431.721       105.88816      2.1997988      53.937747    
      1880   290.00786     -127721.31     -126726.31     -2323.1723      297.56621      2039.0038      2.3382856      9446.4537      106.82441      2.3326018      57.677557    
      1900   282.53857     -127717.77     -126748.41      2459.3766      277.90356      1903.0482      2.3360287      9455.58        106.35136      3.3026292      57.609367    
      1920   278.37533     -127717.99     -126762.91      5891.7836      267.79125      2032.8896      2.3346323      9461.236       105.76996      3.3412919      57.373079    
      1940   286.62799     -127754.71     -126771.32      2685.3845      232.97571      2007.6047      2.335345       9458.3485      107.10177      3.6243122      56.332782    
      1960   287.46766     -127764.94     -126778.67      786.92942      189.498        1908.4227      2.3371134      9451.1919      107.29808      3.0348867      53.965232    
      1980   292.49106     -127789.3      -126785.79      454.92797      211.19251      1858.3181      2.3365846      9453.3306      106.54869      3.5331957      58.408404    
      2000   295.13498     -127801.31     -126788.73     -7272.0907      215.36076      1811.1929      2.3355121      9457.6718      106.72267      4.5906856      52.801169    
      2020   290.90864     -127785.08     -126787         623.55148      177.22554      1872.6231      2.336786       9452.516       107.56462      5.6425769      55.728521    
      2040   285.76528     -127765.89     -126785.45      12875.039      391.36026      2030.1995      2.339746       9440.5577      107.34595      5.23016        48.668613    
      2060   289.68678     -127770.35     -126776.46     -3040.0189      280.01959      1904.4903      2.3406154      9437.0508      107.56412      4.2072396      53.098109    
      2080   281.91239     -127733.13     -126765.91     -13128.215      295.6238       1918.6001      2.3413575      9434.06        108.15513      3.8086555      52.599905    
      2100   289.51094     -127744.88     -126751.6      -8995.5834      311.15424      1993.9767      2.3466593      9412.7454      107.35418      4.6565814      56.037696    
      2120   301.80494     -127762.44     -126726.98     -12767.898      254.49566      2023.2993      2.351888       9391.8191      107.88104      4.7365856      54.347434    
      2140   308.14126     -127763.82     -126706.62     -2829.7114      233.9396       1936.3793      2.3543867      9381.8517      108.90799      4.1230718      54.1224      
      2160   306.36202     -127739.16     -126688.06     -12047.131      184.22186      1926.1581      2.3546323      9380.8733      107.43234      3.0918144      52.009854    
      2180   291.969       -127672.12     -126670.4      -11342.703      236.44787      1904.6654      2.3515877      9393.0186      106.87903      2.1371882      54.214728    
      2200   299.71002     -127680.77     -126652.49      3842.4027      194.39377      1919.6734      2.348408       9405.7363      107.67999      2.1292456      56.333236    
      2220   296.21576     -127652.44     -126636.15     -5060.3822      230.32341      1907.8648      2.3433742      9425.9409      107.49184      2.9907414      58.575265    
      2240   315.97731     -127706.47     -126622.38      9179.2933      260.15986      1936.6032      2.3357626      9456.6575      106.46928      2.7446853      57.881251    
      2260   310.49052     -127669.82     -126604.55     -6015.2012      238.79819      1992.5678      2.3281978      9487.3841      106.71408      1.7053188      51.033366    
      2280   317.83293     -127684.73     -126594.28     -12929.676      255.55495      1987.0093      2.3270254      9492.1639      106.41766      2.3680952      52.768422    
      2300   315.96364     -127672.1      -126588.06      945.83162      301.88074      2051.4666      2.3289052      9484.5025      106.03493      2.9055081      49.481513    
      2320   315.09374     -127663.52     -126582.46      3558.6728      256.38026      2050.6302      2.3295865      9481.7287      106.17957      3.6350569      56.892659    
      2340   305.63635     -127634.36     -126585.75     -6022.383       202.68875      1923.4096      2.3314184      9474.2782      105.86696      4.2357343      53.453639    
      2360   314.0391      -127668.43     -126590.99      2345.5202      247.02085      1965.9088      2.3363714      9454.1934      105.17578      3.6687667      52.989636    
      2380   303.00085     -127639.38     -126599.81     -5792.8189      282.96113      2008.6161      2.3414015      9433.8827      106.36068      4.0449313      53.236185    
      2400   307.88156     -127665.85     -126609.54      11312.436      317.9682       2040.6923      2.3452312      9418.4773      106.67192      4.2148957      51.533614    
      2420   313.52542     -127696.6      -126620.92      3536.3627      286.42651      2034.8402      2.3448878      9419.8565      106.47766      5.2568432      57.614986    
      2440   303.43693     -127676.84     -126635.77     -720.47955      330.47334      2134.97        2.3438665      9423.9613      106.70892      4.5865178      57.927967    
      2460   310.8786      -127717.95     -126651.36     -10196.671      298.15378      2083.646       2.3449003      9419.8062      107.68666      3.6954552      56.626427    
      2480   303.07073     -127714.26     -126674.45     -909.83834      290.77207      2024.5176      2.3455996      9416.9981      107.48689      3.6886666      56.197048    
      2500   304.72949     -127741.12     -126695.62      9457.4394      271.02236      2006.2928      2.3440014      9423.4189      107.49636      3.443572       54.538282    
      2520   302.3898      -127754.49     -126717.01     -1791.1481      247.26727      1864.4079      2.3433624      9425.9883      108.1508       4.2097083      56.993714    
      2540   293.14115     -127742.55     -126736.81     -3662.3957      244.72535      1894.6996      2.3456738      9416.7001      107.85689      3.8049965      57.495208    
      2560   278.98855     -127709.2      -126752.02      11928.854      208.82645      1824.2331      2.3461926      9414.6178      108.29162      2.9267085      55.254678    
      2580   275.48885     -127705.68     -126760.5      -1845.4805      201.44809      1867.8044      2.3443158      9422.155       108.06143      2.3788673      55.360759    
      2600   285.87034     -127746.89     -126766.09     -980.85668      234.42769      1964.8399      2.3432759      9426.3363      107.44051      2.8764862      53.587983    
      2620   311.41134     -127838.13     -126769.71      12807.049      282.76074      1933.9876      2.3417023      9432.6706      107.17571      3.993275       56.938433    
      2640   301.14959     -127804.77     -126771.55     -11540.442      298.58553      1978.6022      2.3401791      9438.8105      107.32041      3.5919709      51.834592    
      2660   295.86156     -127790.92     -126775.85     -3012.4295      251.42315      1901.8942      2.340316       9438.2584      106.42708      3.6120672      54.47074     
      2680   290.19596     -127768.93     -126773.3      -7155.8242      239.24977      1866.5416      2.3392855      9442.4162      105.40931      3.0622766      58.923599    
      2700   284.27729     -127743.51     -126768.18     -13591.585      219.68306      1836.6977      2.339143       9442.9911      106.04106      3.6796679      53.535477    
      2720   279.92822     -127718.82     -126758.41     -1504.059       238.40788      1839.0647      2.3406322      9436.9831      105.88916      4.1286458      54.048436    
      2740   285.97556     -127721.73     -126740.57     -2389.4513      231.42549      1907.4446      2.3402563      9438.4989      106.04252      4.3972481      53.443612    
      2760   301.13743     -127752.51     -126719.33     -18275.153      202.39542      1893.9444      2.337732       9448.6907      106.30373      4.1903601      56.611249    
      2780   305.23958     -127748.27     -126701.02      1060.5579      373.16005      2120.015       2.3363134      9454.4278      106.20373      3.4801582      54.090099    
      2800   308.71743     -127741.51     -126682.33     -5239.3783      215.85731      1886.2669      2.337205       9450.8212      107.05967      3.8744742      59.231981    
      2820   304.68394     -127712.28     -126666.94     -2308.5788      258.78198      1875.6929      2.3368417      9452.2907      107.23689      4.2741578      55.936807    
      2840   304.90243     -127699.95     -126653.86     -14922.299      222.0954       1821.8508      2.3342809      9462.6602      107.53447      4.2875881      57.22874     
      2860   300.9579      -127676.66     -126644.1      -3323.1951      464.01749      2021.8         2.336053       9455.4819      107.34382      3.6124189      52.862932    
      2880   303.35112     -127670.16     -126629.39     -9377.451       182.13228      1828.2143      2.3382544      9446.5796      107.62633      2.8019683      54.913779    
      2900   296.69786     -127632.83     -126614.89     -24350.758      197.74581      2034.9732      2.3385966      9445.1976      108.81501      3.4695639      55.265167    
      2920   318.03735     -127695.79     -126604.63     -4424.0993      380.64302      2017.6879      2.3413591      9434.0534      108.36403      3.8071812      57.427473    
      2940   326.57522     -127718.21     -126597.76      1404.8268      332.76984      2101.8373      2.3418635      9432.0214      108.04696      4.3340881      56.852086    
      2960   330.37955     -127732.13     -126598.63     -5845.8801      238.25704      1885.9518      2.3426738      9428.7592      108.02103      3.9490569      54.010571    
      2980   313.6378      -127679.2      -126603.14      2457.7349      233.61196      1899.521       2.3458579      9415.9609      107.57763      3.0156511      53.468237    
      3000   306.63779     -127665.46     -126613.42     -2742.7882      246.6614       1919.0368      2.3448939      9419.832       107.56129      3.8826302      53.614458    
      3020   305.32602     -127673.12     -126625.57     -169.12236      187.47555      1850.5234      2.3411784      9434.7814      106.77977      4.5595988      51.909053    
      3040   302.33158     -127671.23     -126633.96     -7216.3871      715.35424      2224.7974      2.3381617      9446.9543      106.36242      4.8379526      53.155523    
      3060   301.46208     -127678.79     -126644.5       11753.539      209.12583      2001.2207      2.3375689      9449.3501      106.567        4.0025745      53.282025    
      3080   313.42935     -127730.88     -126655.53     -442.03485      238.08241      1952.064       2.3366352      9453.1258      106.94081      3.5209708      54.734882    
      3100   316.40312     -127757.56     -126672.01      451.88171      331.06987      1972.7609      2.3355666      9457.451       106.55743      3.6058739      53.091397    
      3120   302.63592     -127727.65     -126689.33     -10465.448      208.47416      1877.7446      2.3361598      9455.0497      106.60874      3.8538461      52.747928    
      3140   298.85194     -127730.24     -126704.9      -7241.6225      352.82621      1967.1154      2.3387446      9444.5997      106.65816      3.8118504      50.346061    
      3160   285.11138     -127697.93     -126719.74     -1780.2276      209.80058      1884.4696      2.3415776      9433.173       106.96825      3.6077225      56.146774    
      3180   291.74909     -127732.83     -126731.87      6475.074       220.19352      1870.5089      2.3420774      9431.16        106.34973      2.911691       58.668418    
      3200   294.47478     -127751.57     -126741.25      6922.2806      268.60156      1792.1272      2.3397637      9440.4863      106.51918      2.6724303      57.14967     
      3220   295.82297     -127758.88     -126743.94     -12936.185      186.28643      1799.7198      2.338906       9443.9479      107.01059      3.3405731      54.403526    
      3240   294.15149     -127757.19     -126747.98      14461.754      348.13804      2018.293       2.3405144      9437.4582      106.76375      3.5142089      53.820419    
      3260   306.34684     -127799.86     -126748.81      90.238653      223.16114      1880.5942      2.3385649      9445.3257      107.42979      3.5774543      52.063812    
      3280   292.94323     -127754.46     -126749.4      -1328.6152      237.18498      2018.9907      2.3361914      9454.9219      107.14904      3.3656903      55.124075    
      3300   287.90427     -127734.88     -126747.11     -13329.48       211.61456      1933.3386      2.3394739      9441.6555      107.15914      3.555095       57.540882    
      3320   294.41947     -127757.1      -126746.97      8795.5724      325.71918      2097.4751      2.3431988      9426.6466      107.68568      4.0947282      52.686917    
      3340   288.07057     -127730.3      -126741.95     -9443.7468      275.56237      2007.2102      2.3446982      9420.6183      107.98736      4.2629824      49.841438    
      3360   284.73692     -127712.47     -126735.56      4681.1418      268.98903      1964.9586      2.3466165      9412.9172      107.4482       4.5031165      49.924677    
      3380   281.24616     -127690.32     -126725.39     -9139.3522      184.77396      1817.6994      2.347827       9408.0641      107.2859       3.9146501      52.059251    
      3400   302.28452     -127748.57     -126711.46      10906.42       253.19543      1963.2501      2.3501159      9398.9009      108.17851      4.1205613      54.456658    
      3420   299.15187     -127725.36     -126698.99      24080.063      410.08735      2042.2766      2.3509282      9395.6536      108.00124      4.1081242      57.040542    
      3440   314.87493     -127766.2      -126685.9       11497.746      282.19662      1976.9527      2.3489382      9403.6132      107.63675      4.3784216      52.72062     
      3460   306.73788     -127726.74     -126674.35     -13463.925      258.92254      1917.8903      2.3453585      9417.966       107.39003      3.9989905      55.068862    
      3480   303.22533     -127704.86     -126664.52     -13819.35       243.56247      1924.1047      2.3441415      9422.8557      107.33905      3.4937834      53.185379    
      3500   294.06724     -127667.11     -126658.19      12214.45       221.5328       2018.7421      2.345362       9417.9521      106.88469      3.2920049      54.247005    
      3520   290.14916     -127647.09     -126651.62      791.11748      320.73574      1957.8961      2.3420434      9431.2969      106.52576      3.5511485      55.819502    
      3540   298.33283     -127663.64     -126640.08     -16489.32       192.92058      1838.1028      2.3395332      9441.4162      106.53235      4.5091315      59.057653    
      3560   292.90295     -127635.15     -126630.22      13915.969      399.85073      2010.8377      2.3414068      9433.8611      105.4216       3.9712094      56.496277    
      3580   317.59071     -127709.74     -126620.11     -1808.3572      298.77984      1926.7726      2.339982       9439.6054      106.18952      4.0199108      55.374505    
      3600   310.42008     -127677.37     -126612.34     -3227.0323      262.05119      1917.5715      2.3377079      9448.7883      106.86127      4.1092113      52.274648    
      3620   320.92343     -127712.97     -126611.91      1192.8669      453.04697      2065.1063      2.3368786      9452.1414      105.81069      4.0475922      56.577893    
      3640   300.0097      -127646.09     -126616.78      1858.5317      388.88144      2015.6336      2.3356146      9457.2567      106.52315      5.3264274      53.731438    
      3660   294.76294     -127630.51     -126619.2      -3231.6832      264.05579      2026.9929      2.3368768      9452.1486      107.19183      4.8232274      59.799519    
      3680   300.18113     -127657.67     -126627.77      2056.4404      294.99437      1987.505       2.3405293      9437.3982      106.73303      4.0504886      49.802864    
      3700   291.07928     -127632.86     -126634.19      1117.9239      312.1686       1991.9653      2.3418441      9432.0998      107.32304      3.5650366      56.375812    
      3720   311.75284     -127711.63     -126642.03     -14730.23       240.88         1916.5454      2.3442256      9422.5175      107.64901      3.592733       51.354847    
      3740   303.52064     -127695.02     -126653.67      7171.3743      240.60084      2095.7815      2.3500888      9399.0093      108.02263      3.8325066      59.53792     
      3760   310.82397     -127732.55     -126666.14     -190.09884      225.6767       2030.6915      2.3532689      9386.308       107.81425      2.8960341      51.831798    
      3780   300.99043     -127714.99     -126682.32      6994.7918      280.69         2096.8027      2.3516121      9392.9209      108.39973      2.7571597      59.316634    
      3800   295.16882     -127715.46     -126702.76     -7585.8097      225.28456      1923.3679      2.3504894      9397.4074      107.84839      1.8768251      56.409052    
      3820   289.95329     -127713.11     -126718.3       12752.972      299.55121      2083.6377      2.3492011      9402.5611      107.36212      1.7007579      55.684952    
      3840   285.43147     -127713.4      -126734.11      5298.459       210.84131      1964.7887      2.3435319      9425.3064      107.81375      2.4457603      54.959036    
      3860   289.84634     -127737.04     -126742.61     -3064.6679      308.86659      1956.7588      2.3379281      9447.8984      106.83924      2.6160181      55.233214    
      3880   290.74062     -127748.46     -126750.95      11937.991      262.8357       1979.4185      2.3342921      9462.6148      106.27689      2.4170712      53.234206    
      3900   292.91629     -127757.9      -126752.93     -10277.806      197.74971      1921.7373      2.3306072      9477.5759      106.44445      2.2382242      57.099471    
      3920   285.42391     -127741.63     -126762.37     -96.253277      335.28293      2132.0056      2.3313298      9474.6385      106.65085      3.1055445      54.954516    
      3940   284.3257      -127740.08     -126764.58     -707.36419      293.71024      2018.5203      2.3338379      9464.4564      106.10471      3.7580938      54.716044    
      3960   282.89867     -127737.58     -126766.98     -15873.162      210.9012       1892.8676      2.3340004      9463.7974      106.27223      4.2646038      52.730124    
      3980   265.0511      -127673.38     -126764.01     -16141.736      280.52645      1996.0821      2.3375376      9449.4764      106.24706      4.4183909      56.747674    
      4000   284.68943     -127732.49     -126755.75      4043.2463      246.08299      1988.9254      2.3423527      9430.0517      106.20452      3.9481406      54.626039    
      4020   286.52884     -127723.48     -126740.42     -18418.661      254.49118      1939.5742      2.3427626      9428.4017      106.84159      4.4617781      55.514661    
      4040   302.86371     -127763.6      -126724.5      -13009.051      196.51443      1888.1299      2.3429645      9427.5893      106.63397      4.7535115      54.074437    
      4060   300.94482     -127740.01     -126707.5      -11695.411      283.76878      1965.1893      2.3442895      9422.2607      106.59038      5.2845852      54.433028    
      4080   304.81514     -127737.83     -126692.04     -7371.3697      230.54505      1878.7425      2.3444969      9421.4272      107.04394      4.550014       56.258063    
      4100   297.27652     -127695.48     -126675.55     -3368.8979      268.91602      2014.6766      2.3442337      9422.4852      107.88132      3.8173128      56.070716    
      4120   299.94408     -127690.41     -126661.33      4774.9317      301.0349       1944.1357      2.342763       9428.3999      107.55341      3.6507276      54.72364     
      4140   304.14338     -127689.31     -126645.82      7016.1654      302.60243      1997.3551      2.3413605      9434.0478      107.98478      4.061185       53.952421    
      4160   297.19468     -127652.59     -126632.94     -11291.922      193.70898      1928.9008      2.3392161      9442.6961      108.31173      4.2608968      54.793287    
      4180   311.3715      -127687.38     -126619.09     -3822.6917      296.87018      1971.7585      2.3374911      9449.6644      107.9013       3.5547347      53.785294    
      4200   308.19521     -127667.11     -126609.71      8991.3767      241.59967      1873.8458      2.3361902      9454.9264      107.65072      2.5492021      52.259058    
      4220   311.79414     -127672.16     -126602.42     -6841.2563      247.11485      1973.1781      2.3332425      9466.8716      107.63769      2.8554578      54.601611    
      4240   316.3533      -127682.4      -126597.02     -20377.99       278.36389      2020.373       2.3342543      9462.7681      107.20641      3.5603273      53.411111    
      4260   314.30761     -127676.8      -126598.44     -9046.5646      262.82595      1996.313       2.3380306      9447.4841      107.1067       3.6150579      53.988579    
      4280   316.75908     -127690.79     -126604.02     -13323.596      209.74589      1980.3187      2.3395962      9441.162       107.29518      3.3809951      52.735206    
      4300   303.66676     -127655.58     -126613.73      7229.5368      294.52097      2166.2613      2.3428006      9428.2486      107.01892      2.8524925      53.54674     
      4320   307.31413     -127678.37     -126624        -8641.1052      226.66917      1982.092       2.3468667      9411.9136      106.24865      2.7972796      53.881417    
      4340   306.67752     -127687.9      -126635.72     -9934.2344      427.36766      2086.7127      2.3491241      9402.8693      107.03795      4.1442831      53.488612    
      4360   299.5178      -127678.42     -126650.8      -9284.5232      200.95501      1908.0851      2.3504328      9397.6339      106.57292      4.3021942      53.494579    
      4380   303.18788     -127705.26     -126665.05     -4912.7501      297.41628      1963.4307      2.3484323      9405.6391      106.21425      3.7455473      54.262681    
      4400   307.36641     -127732.69     -126678.14      1591.2482      204.55618      1892.8579      2.3446045      9420.9948      106.5411       3.4408208      53.703466    
      4420   309.7809      -127758.56     -126695.73     -7144.6865      232.92061      1889.2547      2.3405403      9437.3537      106.51955      3.4334536      55.888131    
      4440   300.18032     -127740.31     -126710.42     -7237.959       175.54376      1871.6338      2.3366065      9453.2421      106.54739      3.7753955      53.420678    
      4460   294.84032     -127735.77     -126724.2       7917.2455      205.70995      1827.8438      2.3338486      9464.4128      106.77804      4.4128714      57.597861    
      4480   290.67923     -127734.95     -126737.66      1344.2434      159.47057      1780.7106      2.3319124      9472.2713      106.87716      4.0499367      55.106529    
      4500   287.97707     -127735.17     -126747.14      6309.7403      169.66763      1822.8394      2.3328425      9468.4945      107.08892      3.882947       57.821713    
      4520   282.89394     -127721.86     -126751.27      6990.4547      209.04554      1916.2427      2.3364312      9453.9513      107.35546      3.9855316      53.220309    
      4540   287.19287     -127739.17     -126753.84     -8253.7667      302.88991      1946.6782      2.3395891      9441.1905      107.77598      4.4612233      52.429918    
      4560   298.78189     -127779.11     -126754.02     -806.48228      214.32478      1901.207       2.3437608      9424.3863      107.36306      5.0649857      55.282111    
      4580   299.50189     -127779.76     -126752.19      1585.0464      196.88687      1863.3226      2.3478687      9407.8969      107.31285      4.6891425      54.101764    
      4600   290.53281     -127746.17     -126749.38     -1611.5749      218.75207      1853.8718      2.350874       9395.8702      107.77398      4.376833       53.02834     
      4620   285.45022     -127724.11     -126744.76      9835.946       234.4993       1921.8698      2.3536155      9384.9258      107.44892      3.6585111      49.611764    
      4640   288.57576     -127723.81     -126733.73      4772.5374      418.41241      2019.766       2.353628       9384.8761      107.40155      4.1226816      54.182987    
      4660   303.06673     -127762.36     -126722.56     -1117.249       204.25709      1903.0265      2.3506924      9396.5961      107.49723      4.2842859      54.869934    
      4680   298.69669     -127733.61     -126708.81     -5457.0986      316.77304      2009.499       2.3472133      9410.5238      107.22357      3.6578097      53.5758      
      4700   306.75683     -127749.65     -126697.19     -1204.1942      172.94856      1825.6275      2.3449146      9419.7489      107.08591      3.1897957      50.962238    
      4720   302.20457     -127723.03     -126686.19      3890.7602      288.48308      1928.5506      2.341052       9435.291       107.15435      2.7794044      54.624206    
      4740   294.3467      -127683.29     -126673.41     -7284.433       184.21965      1957.8739      2.3368082      9452.4261      106.87525      3.2447277      54.755033    
      4760   304.54533     -127706.82     -126661.96      10952.582      220.20367      1946.2149      2.3354108      9458.082       106.57268      3.604727       56.297364    
      4780   293.39464     -127658.03     -126651.42      7983.7468      214.14349      1885.0789      2.3341485      9463.1968      106.76099      3.2454611      57.375812    
      4800   303.22577     -127679.57     -126639.23      6730.3125      218.88596      1942.1978      2.3316083      9473.5066      106.84029      2.7137488      53.58087     
      4820   299.60884     -127656.78     -126628.85     -2378.2964      219.49058      1847.0272      2.3309242      9476.287       106.12505      2.5158245      51.180146    
      4840   308.53452     -127677.23     -126618.68      10027.762      309.2891       1953.4341      2.331824       9472.6302      106.65665      3.7766876      54.408005    
      4860   306.32181     -127665.07     -126614.11      152.73189      229.07818      1952.379       2.3332584      9466.8069      106.61905      4.2339968      54.945408    
      4880   311.65578     -127683.42     -126614.16      14534.255      389.54365      2003.8281      2.3367837      9452.5252      106.4898       4.381782       53.89337     
      4900   304.00603     -127656.78     -126613.76      7612.8084      228.61864      2028.3509      2.3393988      9441.9588      106.70199      3.7684963      54.516953    
      4920   304.30084     -127664        -126619.97     -8994.5073      282.67392      2005.305       2.3412651      9434.4321      106.9043       3.5377139      55.044847    
      4940   297.40425     -127648.72     -126628.35     -7985.8554      237.11862      2006.7007      2.3455222      9417.3088      106.88583      4.1748337      55.437944    
      4960   304.23029     -127678.78     -126634.99      11952.294      326.19382      2054.3649      2.3473014      9410.1708      106.90668      4.4336668      54.336667    
      4980   312.42216     -127717.03     -126645.14      213.52056      242.47357      1920.4559      2.3456182      9416.9235      107.70688      4.1048487      57.605955    
      5000   300.8621      -127691.57     -126659.34      10078.234      204.14705      1909.7594      2.3457363      9416.4491      107.08522      2.8260623      53.403506    
      5020   310.96411     -127740.76     -126673.87     -9920.0124      185.7527       1854.2474      2.3444391      9421.6594      107.46746      2.8391438      57.30344     
      5040   301.64571     -127724.21     -126689.29      2312.5719      242.62682      1912.702       2.3425566      9429.231       108.02955      2.8779122      54.554712    
      5060   294.24126     -127713.58     -126704.06      7590.0475      459.6586       2131.5709      2.3413932      9433.9159      107.3959       3.0610661      56.995017    
      5080   291.50618     -127716.93     -126716.8      -12544.313      212.26169      1880.0628      2.3390422      9443.3983      107.20946      2.7616067      54.14062     
      5100   286.4263      -127712.18     -126729.47     -14166.767      228.39432      1896.1914      2.337525       9449.5274      107.30168      2.8168549      55.590724    
      5120   284.78014     -127716.16     -126739.11      9450.667       290.32685      1910.5645      2.3379303      9447.8893      107.05736      2.171671       53.906844    
      5140   285.81591     -127726.17     -126745.57      14632.193      266.58693      1920.3641      2.3390046      9443.5502      106.459        3.0914755      57.362964    
      5160   293.87984     -127757.02     -126748.74     -2916.9009      238.48348      1852.9996      2.3389865      9443.6232      106.73799      4.0657073      58.444255    
      5180   293.55983     -127756.24     -126749.06     -9592.2819      274.18389      1853.6872      2.3396641      9440.8881      106.42326      4.0683764      53.175734    
      5200   285.35438     -127729.35     -126750.33      13985.549      232.98887      1873.2212      2.3409842      9435.5642      106.19353      3.9692149      56.277914    
      5220   293.05432     -127752.48     -126747.04     -5407.3424      224.54671      1898.2956      2.3399562      9439.7094      106.44939      4.1306074      54.843235    
      5240   294.21038     -127749.72     -126740.31     -11860.145      254.67636      1912.1652      2.3388112      9444.3309      106.38819      4.7200962      59.37563     
      5260   283.16113     -127707.78     -126736.28      13486.51       200.11206      1976.0489      2.3400469      9439.3438      106.19237      5.2707317      53.62477     
      5280   294.0636      -127736.63     -126727.73     -8842.7121      182.56611      1854.3203      2.3398985      9439.9422      106.69343      5.1039833      55.30659     
      5300   290.67874     -127713.23     -126715.94     -24080.39       236.36839      1903.636       2.3400891      9439.1733      107.06883      4.2245659      51.779917    
      5320   299.36273     -127731.69     -126704.6      -141.39228      223.39494      1956.4064      2.3418416      9432.1095      106.95761      3.8874701      50.248997    
      5340   306.98357     -127744.07     -126690.84      11398.321      269.91207      1946.5282      2.3423336      9430.1284      107.37119      4.2959863      58.53203     
      5360   302.34947     -127715.1      -126677.76      5510.386       229.20322      1946.1046      2.3427503      9428.4513      107.54886      4.0012086      56.662885    
      5380   305.30992     -127715.66     -126668.17      7670.1502      272.97188      1986.9366      2.3450996      9419.0057      107.81136      3.7348872      51.95551     
      5400   310.92662     -127728.22     -126661.46      13601.483      290.10507      1936.7564      2.3457337      9416.4596      107.63572      2.5491844      53.006852    
      5420   296.31649     -127667.76     -126651.12     -2237.0341      300.05606      2045.2395      2.3432285      9426.527       107.69561      2.2468022      52.618444    
      5440   303.432       -127686.18     -126645.13     -1030.0193      244.21495      1868.9542      2.3421067      9431.0422      107.35993      2.6346052      54.945771    
      5460   312.31201     -127710.46     -126638.95     -3797.7446      184.72968      1840.956       2.3402062      9438.7013      107.16521      3.3965782      53.02956     
      5480   326.84801     -127754.33     -126632.94      1156.5221      242.51395      1826.3192      2.3381836      9446.8657      107.44206      3.4163626      56.678255    
      5500   316.39689     -127715.95     -126630.42     -8236.4742      258.81289      1920.7702      2.3380267      9447.4996      106.97425      2.5830856      52.102786    
      5520   313.17731     -127705.07     -126630.59     -12650.131      212.65702      1880.5401      2.3378068      9448.3886      106.87622      2.9475208      59.047634    
      5540   310.34112     -127699.57     -126634.82     -4261.3324      197.0623       1857.1222      2.33953        9441.4293      107.10775      4.2950028      49.8668      
      5560   305.58282     -127687.42     -126638.99      320.23846      209.00407      1938.5294      2.3422479      9430.4736      106.99344      4.6856928      54.536263    
      5580   302.3128      -127684.59     -126647.38     -9530.1689      249.77411      1851.974       2.343647       9424.8438      106.90332      5.181922       52.094397    
      5600   304.25712     -127696.49     -126652.61      1139.7138      183.13834      1804.7161      2.3447614      9420.3646      106.69474      4.5957313      57.129535    
      5620   302.54695     -127698.14     -126660.12      13426.589      193.71966      1903.6802      2.3458465      9416.007       106.95974      4.856571       53.514377    
      5640   296.47527     -127681.5      -126664.32      4044.7361      246.15045      1927.7667      2.346484       9413.4487      106.98439      5.1217673      54.938248    
      5660   306.04362     -127720.48     -126670.47     -2911.1497      210.77597      1832.1366      2.3455721      9417.1083      106.90715      5.4339103      52.278251    
      5680   302.41494     -127719        -126681.44      580.80288      334.40729      1953.6117      2.3436068      9425.0055      107.18831      5.2191939      55.209103    
      5700   293.96903     -127701.09     -126692.51     -749.55676      463.63741      2048.6129      2.3421786      9430.7525      107.12359      4.2139685      54.479597    
      5720   295.85994     -127718.66     -126703.59      12351.651      372.32277      1941.586       2.3415441      9433.308       107.16359      3.7346988      58.84416     
      5740   291.27826     -127711.67     -126712.32      13140.463      242.55095      1890.7234      2.3401098      9439.09        107.25128      3.5777642      55.719107    
      5760   291.56084     -127719.72     -126719.4      -3619.415       345.75999      1927.8084      2.3382323      9446.669       107.06664      3.2688364      55.648859    
      5780   291.4333      -127724.91     -126725.03      12163.986      312.91205      1997.4322      2.3374079      9450.001       107.07615      3.0559046      56.839344    
      5800   296.78246     -127747.96     -126729.72     -7888.9755      214.24721      1822.0341      2.3366817      9452.9379      107.02873      2.7623294      55.721869    
      5820   305.68597     -127783.34     -126734.56      5865.366       245.66149      1892.2078      2.3368554      9452.2352      107.21167      2.5557557      57.868226    
      5840   297.28848     -127758.28     -126738.31      3149.865       314.80342      1921.5442      2.3372021      9450.8329      107.08371      2.4642069      55.06797     
      5860   287.68924     -127727.84     -126740.81     -8839.7665      264.68332      1903.8363      2.3376692      9448.9445      106.74815      3.0846706      54.121885    
      5880   299.32242     -127771.06     -126744.12     -13008.458      182.2381       1788.1778      2.3402496      9438.5261      107.30607      3.4402067      51.649115    
      5900   291.02478     -127739.8      -126741.32      14459.564      319.17492      1970.7859      2.3445504      9421.2122      107.07981      3.1884346      54.766662    
      5920   282.58126     -127706.36     -126736.85     -12023.842      199.56417      1814.3102      2.3454554      9417.577       107.20046      3.3281278      52.597463    
      5940   298.81787     -127753.24     -126728.02      6941.104       319.12606      1924.3914      2.3469635      9411.5254      107.26109      3.2573366      54.34656     
      5960   304.23925     -127762.09     -126718.27      2046.4332      232.89203      1832.5324      2.3488361      9404.022       107.2189       4.0248643      54.733969    
      5980   306.43223     -127762.05     -126710.71      2032.1042      192.2403       1781.8035      2.3487147      9404.5084      107.37406      4.2172973      55.170202    
      6000   297.6551      -127721.91     -126700.68      17067.033      313.57379      1987.7513      2.3468561      9411.9563      107.57892      3.863065       57.282726    
      6020   297.49082     -127711.47     -126690.81     -4493.6281      265.52186      1862.5908      2.3429825      9427.5169      107.17117      3.454917       58.204737    
      6040   299.53419     -127706.32     -126678.64     -1994.0923      192.94021      1805.8509      2.3388324      9444.2454      107.15002      3.6329024      57.888834    
      6060   296.0039      -127680.96     -126665.4      -3018.9102      234.13023      1971.2567      2.3358639      9456.2474      107.46156      4.2084962      58.018947    
      6080   310.41406     -127718.43     -126653.43     -7175.4982      283.41141      1919.337       2.3332237      9466.9476      107.35981      4.0970333      59.958979    
      6100   308.72503     -127702.24     -126643.03     -5556.3993      233.07859      1884.0093      2.3317495      9472.9329      106.89816      3.9087982      57.24052     
      6120   308.88861     -127692.92     -126633.15     -17992.268      152.94577      1768.1768      2.3305368      9477.8624      106.95787      3.7835936      59.153782    
      6140   316.93303     -127715.24     -126627.87     -11402.333      163.67003      1773.6003      2.3322542      9470.8829      106.8894       4.1339596      53.447108    
      6160   312.38971     -127700.01     -126628.23      18943.816      208.61552      1856.0398      2.3363174      9454.4118      106.75795      4.2390886      57.120938    
      6180   310.2082      -127690.07     -126625.77     -970.03163      213.97266      1844.641       2.3389682      9443.6968      106.67638      4.108503       54.118395    
      6200   313.75016     -127705.98     -126629.53     -6020.3556      172.8495       1787.5138      2.3413305      9434.1687      106.69825      4.5276727      55.59445     
      6220   308.6628      -127696.75     -126637.76     -2664.713       294.84618      1902.8344      2.3449502      9419.606       106.51787      4.1090722      53.545768    
      6240   308.59975     -127702.64     -126643.86     -5601.3857      183.90784      1875.705       2.3463447      9414.0077      106.95425      3.8758905      53.162705    
      6260   314.44562     -127731.19     -126652.36     -2478.4599      285.76577      1864.8621      2.346216       9414.5239      107.01903      4.1886046      53.272933    
      6280   313.70239     -127741.27     -126664.98      6619.1534      302.04515      1903.3119      2.3463623      9413.9369      106.64765      3.9503327      53.113245    
      6300   307.57859     -127735.7      -126680.43      2684.4031      224.05211      1941.0931      2.3446491      9420.8154      106.93309      3.6395565      50.743942    
      6320   293.68715     -127702.44     -126694.83     -4038.8363      165.32853      1771.4761      2.3428247      9428.1519      107.56699      3.8623985      53.70554     
      6340   297.63335     -127730.04     -126708.88      58.554312      175.09452      1812.7172      2.3412103      9434.6531      107.14057      3.5482946      53.710182    
      6360   290.49525     -127719.65     -126722.99     -11413.109      214.51931      1802.837       2.3380332      9447.4737      107.30316      3.0246313      53.166557    
      6380   294.58237     -127742.7      -126732.02      1219.7697      259.70733      1885.6052      2.3363442      9454.3033      107.46364      3.4896718      51.859712    
      6400   289.32641     -127733.61     -126740.95      3168.0988      210.90645      1826.7401      2.3358596      9456.2646      106.88191      3.3005227      52.919312    
      6420   292.56091     -127750.42     -126746.67      9269.8906      293.56819      1869.0741      2.3354931      9457.7485      107.26477      2.54873        50.219045    
      6440   292.21679     -127747.66     -126745.09     -1946.1074      260.05041      1904.6506      2.335212       9458.8873      107.16364      2.3832456      52.152447    
      6460   294.65249     -127755.5      -126744.58      13081.257      680.41588      2233.7848      2.3368252      9452.3572      106.59947      3.2158927      52.489602    
      6480   304.7434      -127788.49     -126742.94     -2614.4382      218.82057      1878.3496      2.339084       9443.2293      106.64025      3.0768719      53.993585    
      6500   297.8779      -127762.54     -126740.55     -2828.8561      296.64819      1916.6514      2.3411589      9434.8601      107.02669      3.3112403      51.971376    
      6520   294.71109     -127748.72     -126737.59     -13506.312      199.00897      1857.2777      2.3448593      9419.9711      106.83077      3.4917333      51.506811    
      6540   290.53734     -127724.5      -126727.7      -6682.2588      313.90487      2013.1728      2.3473085      9410.1423      106.12774      3.1057726      54.242872    
      6560   298.02274     -127740.78     -126718.29     -4167.7613      219.37506      1900.1666      2.3474923      9409.4053      107.11261      3.7821309      52.553423    
      6580   297.85311     -127726.38     -126704.47      2874.6416      213.14795      1962.5332      2.3480237      9407.276       106.97066      4.1677287      54.410592    
      6600   310.18506     -127755.46     -126691.24      7175.1219      191.4202       1863.7419      2.3472556      9410.3542      106.4344       4.5575254      54.225612    
      6620   313.99343     -127755.42     -126678.14     -767.52479      215.17654      1912.2426      2.3431265      9426.9373      107.33928      4.2325821      52.024093    
      6640   316.62731     -127752.55     -126666.23      2510.5956      221.12888      1884.7257      2.3406624      9436.8615      107.24832      3.9908873      55.219366    
      6660   315.5243      -127741.05     -126658.51      9274.4133      273.84839      1888.819       2.340098       9439.1374      107.10621      4.6711253      54.200692    
      6680   300.0177      -127683.3      -126653.96      1727.565       235.72226      1873.2492      2.3383076      9446.365       107.24365      4.6345522      55.777296    
      6700   304.65257     -127694.05     -126648.81      15397.479      203.14035      1875.977       2.3361407      9455.1269      107.5367       5.0281292      52.983       
      6720   301.92132     -127680.66     -126644.79      28732.422      257.4242       1863.7198      2.337025       9451.5493      106.82054      4.0532449      55.103745    
      6740   313.59978     -127714.75     -126638.82      8922.9011      201.33455      1839.8785      2.3370871      9451.298       107.27126      4.2877045      54.195669    
      6760   321.6311      -127738.24     -126634.76     -11334.322      211.22683      1920.7574      2.3373228      9450.345       107.24089      4.1134962      50.842822    
      6780   322.69908     -127743.42     -126636.27      4882.2245      277.02519      1860.4074      2.3393669      9442.0875      106.62085      4.387434       56.213262    
      6800   312.50607     -127713.1      -126640.92      3887.3492      326.18175      1929.9741      2.339903       9439.9241      106.50495      4.2694562      57.025774    
      6820   308.03645     -127704.96     -126648.12      4259.5268      242.4452       1972.5275      2.3416862      9432.7358      106.43021      3.5808154      57.304901    
      6840   299.37311     -127680        -126652.88      21368.537      283.77859      2049.656       2.3439052      9423.8055      106.5459       3.489268       54.006463    
      6860   304.06847     -127702.49     -126659.26      2226.9172      277.77075      2013.2828      2.3436973      9424.6416      106.37387      3.7868479      55.643903    
      6880   302.80192     -127709.07     -126670.18      2660.4643      286.46417      1958.1504      2.3418295      9432.1586      106.43633      4.2878845      54.956949    
      6900   303.96134     -127721.23     -126678.37      6740.9423      254.20383      1980.3698      2.3409139      9435.8474      106.4568       3.9438252      55.495433    
      6920   308.49751     -127747.37     -126688.94      17551.193      231.77776      1982.4828      2.3406936      9436.7356      106.4914       3.6282446      56.25184     
      6940   300.62337     -127729.32     -126697.9      -4592.4132      222.78372      1912.4073      2.3384913      9445.6227      107.01698      3.7923874      55.888832    
      6960   301.84558     -127742.58     -126706.98     -10745.114      188.54342      1883.4372      2.3385127      9445.5364      107.07511      3.8536477      55.841853    
      6980   296.2778      -127732.02     -126715.51      4716.8349      170.24057      1812.1051      2.3391777      9442.851       106.98872      4.2784525      56.535012    
      7000   292.81591     -127728.43     -126723.8      -493.58222      209.16291      1881.4273      2.3383268      9446.2872      106.96183      4.0064089      53.919688    
      7020   288.11161     -127715.57     -126727.08      857.46462      237.81551      1868.7903      2.3381966      9446.8132      107.24034      3.8005331      56.033359    
      7040   292.51301     -127733.15     -126729.57      6564.6791      234.9707       1823.5333      2.3382707      9446.5139      106.61741      2.9720607      57.747566    
      7060   293.78057     -127736.25     -126728.31     -6216.8901      190.24254      1857.9849      2.3373305      9450.3137      106.86808      3.0923089      61.142729    
      7080   301.47206     -127761.73     -126727.41     -21293.123      172.61739      1811.1512      2.3384393      9445.8331      106.67176      3.3437246      54.978186    
      7100   295.88684     -127743.95     -126728.79      6408.1455      276.50457      1925.0213      2.3409527      9435.6914      106.55383      3.2076743      58.557827    
      7120   297.96328     -127748.6      -126726.32      1477.7175      263.11628      1860.9409      2.340799       9436.3109      106.66985      3.0134998      53.915426    
      7140   290.95831     -127722.18     -126723.93     -713.79036      186.30737      1884.9238      2.3416174      9433.013       106.35434      2.6025846      56.386136    
      7160   297.39938     -127741.4      -126721.04     -2392.0509      164.5547       1787.016       2.3422367      9430.5187      106.47788      2.7541136      53.015164    
      7180   285.87293     -127698.7      -126717.89     -9144.3923      216.86817      1914.2337      2.3420993      9431.0718      106.18077      3.4468296      51.71328     
      7200   299.98395     -127740.36     -126711.15      13883.581      224.72104      1898.2535      2.3424639      9429.604       107.03186      4.0529804      51.84308     
      7220   297.27617     -127723.66     -126703.73      4354.7336      385.81781      1971.525       2.3417788      9432.3628      106.51683      3.9225979      54.639215    
      7240   300.18041     -127725.52     -126695.63      3629.7846      235.66836      1967.774       2.3399234      9439.8418      106.66714      3.9364175      51.138485    
      7260   304.25217     -127729.12     -126685.25      8211.6256      291.33164      1938.1169      2.33872        9444.6991      107.19291      4.280064       52.41246     
      7280   305.7856      -127726.05     -126676.93      4119.0444      320.70325      1909.2335      2.3382069      9446.7716      107.18558      5.1516281      49.719862    
      7300   310.89665     -127736.86     -126670.2      -4864.7633      323.43721      1929.5019      2.3374878      9449.6777      107.2082       5.2769177      54.338912    
      7320   309.48937     -127727.5      -126665.67     -3412.0578      196.51475      1871.4688      2.3368777      9452.145       107.43883      5.0724722      54.615774    
      7340   307.21028     -127714.2      -126660.19      3804.1731      178.54491      1871.3295      2.3377203      9448.7382      107.52058      4.9964359      54.68866     
      7360   306.23822     -127708.66     -126657.98      21680.946      269.08402      1909.7879      2.3394703      9441.67        106.94382      5.1580186      57.016282    
      7380   308.78803     -127713.2      -126653.77     -13868.892      207.29396      1796.5106      2.3377219      9448.7317      107.35431      5.221709       50.785943    
      7400   309.38345     -127712.11     -126650.64      7334.4374      238.63396      1902.4834      2.3384672      9445.7201      107.02274      4.9262262      51.77652     
      7420   316.59633     -127736.05     -126649.83      5626.2939      190.70731      1853.112       2.340912       9435.8551      106.4701       3.6660916      51.90988     
      7440   316.77438     -127736.9      -126650.08     -11331.367      211.42333      1826.0163      2.3404073      9437.8901      106.80419      2.9623691      55.926469    
      7460   320.3315      -127752.23     -126653.2       1023.6728      211.55639      1837.0439      2.3411751      9434.7951      106.95247      3.034509       54.199915    
      7480   304.90509     -127705.01     -126658.91      12077.013      277.50157      1986.4867      2.3425745      9429.1586      106.40166      2.8018232      52.077761    
      7500   300.7161      -127697.2      -126665.47     -929.25951      373.36157      2030.9578      2.3424561      9429.6354      106.47076      2.0295916      51.947971    
      7520   295.19443     -127684.91     -126672.12     -6642.2493      234.40428      1885.388       2.3431705      9426.7604      107.00186      1.4868932      51.900212    
      7540   303.39122     -127720.43     -126679.52      20554.207      199.67998      1879.6191      2.343927       9423.7181      106.40844      1.479764       54.148218    
      7560   302.16083     -127719.27     -126682.59     -12599.043      194.25638      1831.4146      2.3417771      9432.3695      106.96947      1.6130197      54.765695    
      7580   303.27262     -127730.08     -126689.58     -9242.6972      221.43928      1866.2953      2.3419884      9431.5186      106.90352      1.9735389      54.588907    
      7600   306.52225     -127748.27     -126696.62     -5043.8019      241.84382      1865.6596      2.3426526      9428.8442      106.81135      2.7857326      53.273036    
      7620   298.23251     -127726.31     -126703.1       2567.9193      193.89905      1903.3312      2.3422102      9430.6254      107.24243      3.1289619      54.737398    
      7640   301.13246     -127744.27     -126711.11      2019.5552      335.03341      1833.5948      2.34088        9435.9843      107.40452      3.3974306      54.557       
      7660   296.871       -127734.51     -126715.97      3034.5856      218.59123      1840.486       2.3412572      9434.4639      107.20103      4.6716706      56.180513    
      7680   296.95238     -127741.58     -126722.76      12495.121      199.9034       1844.58        2.3421937      9430.6919      106.94139      5.2040875      57.296931    
      7700   292.11818     -127726.56     -126724.32     -2924.473       257.80736      1884.6562      2.3411563      9434.8706      107.57125      5.7095809      53.183764    
      7720   299.46326     -127753.14     -126725.7       11433.747      186.71871      1896.7178      2.3423563      9430.037       107.11812      6.000543       56.942892    
      7740   291.64611     -127726.19     -126725.57      663.25227      206.60112      1819.3655      2.3425732      9429.164       107.00871      6.0216862      53.819621    
      7760   295.24812     -127735.57     -126722.6      -7400.9795      223.92724      1915.5086      2.3411615      9434.8495      106.96768      5.9169438      58.939601    
      7780   298.49923     -127744.61     -126720.48      12827.61       406.9069       2044.3043      2.3429596      9427.6089      107.10261      6.1388763      52.63907     
      7800   295.70805     -127733.03     -126718.48      18767.159      297.42481      1946.7332      2.3435994      9425.0351      106.66155      5.7488165      57.297125    
      7820   292.09305     -127713.91     -126711.76     -1051.4974      281.98527      2010.4744      2.3410063      9435.475       106.9214       4.8894812      54.892013    
      7840   296.36086     -127723.31     -126706.52     -2168.1169      285.66193      1874.1968      2.3408385      9436.1513      106.84619      3.9147948      57.123957    
      7860   300.27435     -127729.01     -126698.79      4987.1492      232.92324      1862.5466      2.3420293      9431.3537      106.52003      3.6705125      55.311457    
      7880   305.67042     -127742.94     -126694.21      8964.9896      276.38146      1857.7935      2.3407603      9436.4666      106.93775      3.5106483      57.75719     
      7900   307.44599     -127740.2      -126685.38     -3209.7957      305.63445      1963.3081      2.3392583      9442.5258      106.88942      2.8905233      55.051159    
      7920   312.76226     -127753.81     -126680.75      18633.13       309.96557      1848.9143      2.3396593      9440.9075      106.68324      2.2178393      56.576914    
      7940   314.08076     -127753.34     -126675.75     -4592.7003      186.91278      1791.2444      2.3386225      9445.0929      106.87688      1.9491399      54.432528    
      7960   296.87002     -127692.53     -126673.99     -8169.2452      196.34021      1877.7819      2.3380971      9447.2154      107.0615       2.0488327      55.104314    
      7980   290.20936     -127665.02     -126669.34     -2451.6861      330.56707      1980.2109      2.3379126      9447.9609      107.0981       2.6905469      52.504741    
      8000   299.00095     -127690.4      -126664.55      12216.104      307.45769      2020.7017      2.3366037      9453.2535      107.19651      3.0913327      52.277977    
      8020   302.6012      -127699.01     -126660.81     -14624.902      250.69953      1909.7418      2.3362997      9454.4833      107.32658      2.8455581      51.958238    
      8040   299.15073     -127682.41     -126656.05     -10458.92       249.48571      1929.8052      2.337635       9449.083       107.13283      2.9677805      52.822607    
      8060   305.29434     -127701.24     -126653.8       737.51402      303.17584      2007.8458      2.3370416      9451.4819      107.14085      3.7609968      56.014656    
      8080   300.9956      -127686.66     -126653.97     -15945.718      206.40085      1908.445       2.3365884      9453.3153      107.27578      4.1615096      53.966236    
      8100   305.80557     -127704.07     -126654.88     -4144.0589      251.71521      1891.6172      2.3392843      9442.4209      106.76823      4.2835224      56.73511     
      8120   302.45835     -127692.78     -126655.07      1069.4514      313.10504      1958.9955      2.3409285      9435.7887      106.81081      4.1697917      50.705806    
      8140   298.55632     -127683.19     -126658.87     -16085.566      319.80664      1962.6291      2.3412021      9434.6859      106.91102      3.9995853      53.942558    
      8160   310.8163      -127729.9      -126663.52     -3466.4264      259.27169      1874.8726      2.3436         9425.0327      106.56085      4.4803658      52.856027    
      8180   309.63995     -127729.16     -126666.81      8184.4208      510.64278      2171.6253      2.3437795      9424.3109      106.48388      4.1098307      58.85182     
      8200   301.36443     -127707.75     -126673.8      -4318.6484      193.74991      1945.2928      2.342426       9429.7564      106.48627      3.8155121      53.683846    
      8220   304.5656      -127725.69     -126680.75      2722.0618      254.50298      1922.6423      2.3414421      9433.7191      106.37419      3.3147539      53.40703     
      8240   303.26028     -127727.57     -126687.11      4582.3717      191.81337      1802.9663      2.3392691      9442.4821      106.02847      3.1386794      53.107128    
      8260   301.5997      -127728.92     -126694.16     -6445.5185      364.73252      1955.01        2.3367036      9452.8492      106.32813      3.2232579      52.334046    
      8280   313.85993     -127778.07     -126701.24     -6311.633       299.27722      1879.7796      2.3355752      9457.4161      106.51649      3.5211319      51.702378    
      8300   296.65164     -127728.17     -126710.39      1943.1453      353.94925      1901.0167      2.3349283      9460.0363      106.10735      3.336463       53.187241    
      8320   296.33163     -127733.4      -126716.71     -2893.2666      280.62527      1843.7555      2.3336417      9465.2519      106.6603       3.1147963      56.593306    
      8340   295.04563     -127734.92     -126722.64     -15058.487      206.49352      1781.7994      2.3341751      9463.0889      106.69733      3.5773874      53.3805      
      8360   295.92996     -127739.55     -126724.24      7872.3395      296.84899      1943.3991      2.3372765      9450.5323      106.61863      3.6106778      52.61338     
      8380   303.92349     -127768.3      -126725.56      1624.0898      324.9075       1956.486       2.3386595      9444.9435      106.85923      3.7743463      50.009966    
      8400   295.47308     -127737.96     -126724.22      1731.6026      263.9046       1926.7244      2.3402007      9438.7232      107.0219       4.005986       54.643526    
      8420   297.84407     -127746.29     -126724.41      6591.3511      321.80001      1915.8911      2.3441471      9422.8329      106.84545      3.9567657      54.830978    
      8440   306.10844     -127769.83     -126719.6       8488.4639      218.44402      1841.2864      2.3461967      9414.6013      106.76698      3.6591684      57.774279    
      8460   291.6068      -127717.07     -126716.59     -3572.708       205.9675       1874.1948      2.3472243      9410.4796      107.21441      4.1643861      54.658847    
      8480   297.8834      -127733.56     -126711.55     -1099.9612      255.76071      1880.6849      2.3491579      9402.734       106.76921      4.4210355      56.301375    
      8500   297.27932     -127725.83     -126705.89     -9399.9331      294.18173      1924.3757      2.3485478      9405.1765      106.85059      4.7817281      50.880205    
      8520   299.19697     -127723.37     -126696.86     -6253.4657      250.27187      1897.3922      2.3469204      9411.6985      107.31426      4.5027849      52.279477    
[...]
     37940   306.53642     -127707.52     -126655.82      607.76772      230.65262      1778.6668      2.3370161      9451.5854      107.14725      3.6772658      54.512118    
     37960   322.91735     -127757.77     -126649.87      9798.3142      198.79101      1790.5001      2.3374838      9449.694       107.2095       4.2207835      53.7577      
     37980   307.50187     -127705.06     -126650.05      15898.596      280.05049      1886.0051      2.3387499      9444.5782      106.70637      4.1457514      57.551046    
     38000   315.32415     -127732.77     -126650.92     -3581.4049      173.61295      1743.8406      2.3393865      9442.0084      107.37513      4.456488       54.388214    
     38020   300.36114     -127686.43     -126655.92     -7073.2997      184.4195       1781.9621      2.3406882      9436.7575      107.2904       4.3473581      55.054271    
     38040   305.3171      -127708.36     -126660.84     -1454.2064      211.87524      1738.17        2.3415251      9433.3845      107.11023      4.305415       53.259861    
     38060   306.92784     -127716.03     -126662.99      8420.1686      240.87255      1857.5969      2.3421569      9430.8401      107.1053       5.1584618      52.396251    
     38080   301.73114     -127704.76     -126669.54     -5038.3809      219.16212      1802.9008      2.3416066      9433.0564      107.47852      5.7163728      53.295443    
     38100   297.07944     -127695.36     -126676.1      -1549.8834      187.81591      1726.3789      2.3408794      9435.9865      106.90346      4.9415012      53.188378    
     38120   304.5766      -127726.71     -126681.74      17227.907      250.66456      1720.6707      2.3399445      9439.7565      107.13716      4.8327928      58.146089    
     38140   293.08578     -127691.88     -126686.33     -10381.568      192.42059      1717.0169      2.3369185      9451.9801      107.08589      5.3240119      48.548761    
     38160   298.79666     -127716.27     -126691.12     -14229.803      216.01114      1797.3292      2.3353615      9458.2815      106.73593      4.9347341      55.114771    
     38180   313.64504     -127770.47     -126694.38     -3898.8676      330.92666      1832.3455      2.3356335      9457.18        107.2362       5.2298778      50.465728    
     38200   289.23946     -127692.02     -126699.66      5723.8402      205.62997      1827.8081      2.3346668      9461.0962      107.02916      5.1131397      55.961385    
     38220   308.08443     -127761.96     -126704.95      6379.7631      262.15329      1796.4404      2.3346224      9461.2759      107.0867       4.3789065      52.306372    
     38240   291.68191     -127711.78     -126711.05      7260.1779      227.0309       1830.1952      2.3363526      9454.2694      106.77761      3.9483487      55.22321     
     38260   296.85698     -127734.25     -126715.76     -5294.6805      187.4925       1701.1746      2.3384109      9445.9478      107.38097      4.9098432      54.96625     
     38280   297.30871     -127743.16     -126723.12     -2211.5355      186.10666      1722.1099      2.341751       9432.4746      107.0508       4.6749901      54.886626    
     38300   302.62678     -127766.52     -126728.23     -13647.566      229.25632      1677.8098      2.3432874      9426.29        107.26712      4.0492869      55.430636    
     38320   296.36684     -127752.86     -126736.05     -6469.9363      278.50784      1787.2605      2.3439713      9423.5396      107.36804      3.5698543      55.661153    
     38340   281.17327     -127707.05     -126742.37     -8222.2072      262.97476      1778.5917      2.3452385      9418.448       106.84315      3.7123443      54.110984    
     38360   287.70324     -127735.4      -126748.31     -9926.4504      235.02174      1834.1539      2.3447083      9420.5776      107.15898      3.296782       52.845353    
     38380   290.37365     -127750.31     -126754.06     -1365.6853      199.83237      1751.4318      2.3423527      9430.0516      107.00142      3.2751057      56.444889    
     38400   285.06936     -127738.37     -126760.32      2362.8865      198.59147      1714.3667      2.3406932      9436.7373      106.77676      3.2437249      54.20725     
     38420   281.50372     -127731.3      -126765.48      5559.3899      177.24635      1772.2402      2.3395648      9441.2888      106.32577      2.4559423      56.581575    
     38440   282.13549     -127737.65     -126769.67     -7421.9096      210.37571      1776.6599      2.3372298      9450.7209      106.68049      2.8154223      52.532299    
     38460   280.12103     -127732.45     -126771.38     -14047.791      188.64041      1813.7857      2.3359766      9455.7913      106.72442      3.1255874      57.15988     
     38480   298.85706     -127795.11     -126769.76     -8045.0488      161.96637      1639.3403      2.335904       9456.0848      105.9687       2.8986323      52.388797    
     38500   289.21635     -127757.9      -126765.62     -1141.9883      223.4945       1751.2881      2.3354202      9458.044       106.52682      3.1095714      55.722789    
     38520   295.73587     -127774.45     -126759.8       2753.0219      232.80897      1723.1897      2.3371012      9451.2412      106.41378      3.4612325      56.010528    
     38540   293.06464     -127753.85     -126748.37      8091.7562      249.56268      1848.3848      2.3397467      9440.5546      106.41183      3.5522393      59.81308     
     38560   297.81825     -127753.94     -126732.15     -1522.2813      252.98178      1898.3534      2.3396661      9440.8798      106.46584      3.9237485      57.714444    
     38580   292.68035     -127726.04     -126721.88     -2999.4965      270.187        1847.2912      2.3400306      9439.4095      106.27403      4.3428558      56.78473     
     38600   289.84991     -127703.15     -126708.7       3354.0956      171.07424      1743.6971      2.3424762      9429.5542      106.21251      4.1362093      57.663985    
     38620   293.37279     -127705.32     -126698.78      16853.363      297.80909      1836.287       2.3423627      9430.0112      106.3558       4.3542483      58.544576    
     38640   297.32518     -127706.96     -126686.86     -8817.2552      167.89922      1748.0229      2.3406074      9437.0833      106.70333      4.7560213      59.769454    
     38660   301.28197     -127711.23     -126677.56      10633.08       374.84187      1960.9603      2.3411096      9435.0589      106.48075      4.2562431      54.395281    
     38680   307.52213     -127726.37     -126671.29      919.74854      209.49304      1784.8787      2.3404667      9437.6506      106.5145       4.3907833      59.208131    
     38700   303.86849     -127709.3      -126666.75     -8717.1971      237.21267      1795.6255      2.3385015      9445.5816      107.10565      4.6991454      55.609934    
     38720   305.48168     -127712.81     -126664.73     -2884.0199      183.17909      1762.9339      2.3385282      9445.474       106.88609      4.0323471      50.833504    
     38740   303.36169     -127702.79     -126661.98      11035.8        205.99585      1895.3534      2.3387858      9444.4333      106.70381      3.7296772      54.048643    
     38760   301.67612     -127697.59     -126662.56      2536.9718      209.10492      1835.752       2.3378729      9448.1211      107.00918      3.6800899      53.10956     
     38780   304.08938     -127708.55     -126665.24      5717.6603      202.11089      1798.4203      2.3385637      9445.3305      107.04473      3.6908146      54.559491    
     38800   307.11234     -127721.31     -126667.64     -10147.625      208.06358      1797.0943      2.3391481      9442.9708      106.92076      3.377124       49.691756    
     38820   308.29773     -127728        -126670.26     -6709.9742      211.595        1808.8018      2.3393746      9442.0565      106.8808       3.2079043      52.484677    
     38840   290.25937     -127672.36     -126676.51     -5636.0304      219.58399      1801.6274      2.3403038      9438.3076      106.87376      3.003616       50.961538    
     38860   301.64009     -127716.16     -126681.26     -1113.8779      284.95449      1869.4086      2.3415753      9433.1825      106.92176      2.8865121      52.716943    
     38880   297.30389     -127707.88     -126687.85     -6749.5955      176.97302      1784.7492      2.3417942      9432.3004      106.9143       2.8697979      49.766134    
     38900   295.22129     -127705.69     -126692.82     -1786.0825      274.29963      1809.4673      2.3409628      9435.6505      106.96479      3.332798       54.225061    
     38920   304.43039     -127750.5      -126706.02      3672.9959      186.58822      1757.2451      2.341059       9435.2628      106.69286      3.2641378      50.831033    
     38940   293.33228     -127724.93     -126718.53     -485.07983      237.14241      1790.0613      2.3405185      9437.4415      106.77414      3.4214437      50.300691    
     38960   297.09895     -127747.1      -126727.78     -12784.257      216.68222      1807.7895      2.3390804      9443.244       106.85322      3.8304599      48.090571    
     38980   295.22722     -127750.04     -126737.14     -5554.5989      223.74413      1857.9396      2.3392384      9442.606       106.60099      4.1531267      51.827936    
     39000   289.01601     -127736.48     -126744.89     -8325.5325      323.91517      1874.3472      2.3383268      9446.2874      106.56504      4.4779398      48.79126     
     39020   290.23038     -127745.36     -126749.6      -2355.4267      298.73685      1909.1836      2.3374028      9450.0216      106.75115      4.5782143      50.007318    
     39040   281.69472     -127717.14     -126750.67      11310.649      357.92436      1958.9932      2.3390057      9443.5455      106.80746      4.6950312      46.061197    
     39060   290.02769     -127744.97     -126749.91     -3051.462       353.38728      1863.3576      2.3391096      9443.126       106.65159      4.6084068      54.03421     
     39080   304.93482     -127793.77     -126747.56     -9583.6775      175.01093      1801.5541      2.3377852      9448.4757      106.96696      4.773494       48.431902    
     39100   296.27033     -127760.21     -126743.73     -1450.5514      318.32031      1840.8296      2.3384716      9445.7022      106.85516      4.6611666      54.847356    
     39120   296.22582     -127754.05     -126737.72      3063.6286      200.94425      1790.1773      2.3403054      9438.3012      106.71683      4.7212151      52.573017    
     39140   295.31774     -127737.08     -126723.87     -1778.2992      246.81705      1812.8441      2.3397904      9440.3785      107.19343      4.1254479      55.819122    
     39160   290.06718     -127696.47     -126701.27     -8066.2046      280.45648      1880.9421      2.3392888      9442.4028      106.98956      3.8177267      55.88683     
     39180   298.91697     -127706.54     -126680.98     -9230.4454      199.75657      1834.1691      2.339429       9441.837       106.83553      3.6313852      54.777326    
     39200   304.96501     -127711.26     -126664.95     -4700.0451      219.591        1799.3973      2.3388597      9444.1348      107.20525      3.3176316      56.112115    
     39220   308.95276     -127714.33     -126654.34      1299.3443      262.01134      1854.9002      2.3385304      9445.4649      106.94078      2.7675138      55.77339     
     39240   300.81542     -127677.25     -126645.18     -14783.304      194.86716      1825.452       2.337779       9448.501       106.90797      2.9501304      57.098048    
     39260   301.47475     -127678.17     -126643.84      5188.5489      236.35509      1928.1421      2.3376286      9449.1089      106.5935       2.5922348      52.477658    
     39280   302.01878     -127679.68     -126643.48      443.06333      180.4758       1873.315       2.3386744      9444.8833      107.12836      2.4691402      55.59884     
     39300   299.26725     -127669        -126642.24      4988.1753      273.39894      1918.4267      2.3393903      9441.993       106.59345      3.0051052      54.008643    
     39320   311.40514     -127713.72     -126645.32     -12239.648      249.73383      1833.7744      2.3381259      9447.099       106.48165      3.1611868      55.428015    
     39340   303.22297     -127688.42     -126648.09      946.55533      306.59928      1894.407       2.3373645      9450.1765      107.00384      3.0993006      51.269888    
     39360   311.38007     -127722.23     -126653.91      518.41511      300.84455      1850.0406      2.3373848      9450.0942      106.45081      3.2907514      55.543733    
     39380   307.65724     -127715.45     -126659.91      5936.7944      244.13721      1955.6132      2.3369307      9451.9307      106.8379       3.7603095      54.856958    
     39400   304.8776      -127712.61     -126666.6       15482.138      247.89302      1922.9631      2.3363895      9454.1199      107.0055       3.9510947      55.410667    
     39420   302.5611      -127715.64     -126677.58      3978.6488      241.69974      1925.1729      2.3357875      9456.5566      107.01739      4.2967652      55.075323    
     39440   299.81734     -127716.03     -126687.38      10339.224      243.49241      1882.097       2.3367068      9452.8361      106.68062      3.8375276      55.572662    
     39460   302.40579     -127733.57     -126696.04      6921.6789      299.30276      1889.3074      2.3376929      9448.8487      107.22502      3.8718735      56.707196    
     39480   302.11665     -127743.03     -126706.5       12605.762      224.28979      1797.8321      2.3397253      9440.6411      106.95619      3.827243       57.36613     
     39500   307.03883     -127768.12     -126714.69      2673.4512      302.94133      1786.579       2.3404175      9437.8489      106.53622      4.3659674      54.236901    
     39520   298.32557     -127743.99     -126720.46     -13075.943      160.87096      1767.5743      2.340714       9436.6535      107.18621      4.024986       54.792608    
     39540   297.66549     -127750.46     -126729.2       3135.3881      200.69777      1731.0231      2.3431672      9426.7738      106.76741      3.6693417      56.871216    
     39560   290.61007     -127728.92     -126731.87      15941.86       301.97359      1921.3132      2.3437959      9424.2449      106.45511      3.2935407      57.004968    
     39580   294.31109     -127743.11     -126733.35     -8719.3671      214.15481      1767.988       2.3422201      9430.5856      106.88774      3.4743537      57.09581     
     39600   298.04955     -127754.64     -126732.06      2362.5856      277.12545      1920.9736      2.3417138      9432.6243      106.7459       3.8548503      55.366926    
     39620   289.61423     -127725.43     -126731.79      12190.008      272.51481      1961.2346      2.3411283      9434.9835      106.43087      3.8676478      52.885777    
     39640   291.46681     -127727.22     -126727.22      16673.434      302.11878      1986.1216      2.3386565      9444.9555      106.8419       3.7107662      54.977686    
     39660   289.91509     -127716.05     -126721.37     -1459.773       283.1623       1800.8938      2.3369463      9451.8674      106.7124       2.9620007      52.147041    
     39680   295.25405     -127727.72     -126714.73     -15014.341      210.55217      1767.1606      2.3367455      9452.6796      106.4264       3.2490779      56.299648    
     39700   300.29486     -127735.95     -126705.66      7693.9046      195.59101      1802.1933      2.3365713      9453.3845      106.60066      3.3089566      53.429008    
     39720   309.64319     -127761.56     -126699.21     -347.69654      182.6047       1699.5291      2.3371007      9451.2432      107.09292      3.3273828      58.613156    
     39740   297.22498     -127713.44     -126693.68      5596.5397      211.85447      1742.6925      2.3391735      9442.868       106.53823      3.3619494      50.203112    
     39760   308.78655     -127745.71     -126686.29      553.87737      173.9746       1755.4512      2.3401049      9439.1098      106.51224      2.8799951      53.958069    
     39780   307.40527     -127737.57     -126682.89     -4598.098       190.10012      1786.6784      2.3418111      9432.2327      107.04155      3.0794527      52.813633    
     39800   307.72553     -127738.29     -126682.52      9984.4409      238.67519      1839.8274      2.3454374      9417.6491      106.5309       3.0720066      55.97186     
     39820   306.01097     -127730.6      -126680.7       12113.859      224.10758      1903.7336      2.3447162      9420.546       106.53315      3.3698071      55.817344    
     39840   299.08968     -127708.29     -126682.14     -10373.351      178.88139      1803.8916      2.3427378      9428.5015      106.80587      3.3579057      55.996162    
     39860   307.77789     -127739.55     -126683.59      12486.896      236.57334      1765.2741      2.3430533      9427.2318      106.55881      3.0491367      53.10015     
     39880   299.93152     -127713.03     -126683.99      1079.0477      234.75984      1787.9983      2.341433       9433.7557      106.31283      3.1131786      56.418587    
     39900   300.65712     -127718.11     -126686.58     -5686.0715      210.8099       1836.8305      2.33852        9445.5069      106.84183      3.7889889      54.779148    
     39920   299.51757     -127718.32     -126690.7       10893.256      320.53085      1902.487       2.3370524      9451.4382      106.75766      4.0172536      56.432897    
     39940   298.10191     -127714.82     -126692.06      6545.4787      262.63889      1855.3041      2.3345357      9461.6272      106.23894      3.5697602      51.509586    
     39960   290.22116     -127688        -126692.27     -6966.0066      201.98393      1847.3482      2.3324366      9470.1423      106.7539       3.4243341      56.952417    
     39980   296.74426     -127714.81     -126696.71     -3696.5108      161.26747      1685.1792      2.333432       9466.1027      106.76218      3.6664785      47.838185    
     40000   296.66623     -127715.62     -126697.78      17340.752      232.54541      1795.4297      2.3346292      9461.2482      106.14324      3.532174       56.948062    
Loop time of 1544.11 on 32 procs for 40000 steps with 1152 atoms

Performance: 1.119 ns/day, 21.446 hours/ns, 25.905 timesteps/s, 29.842 katom-step/s
99.1% CPU use with 32 MPI tasks x 1 OpenMP threads

MPI task timing breakdown:
Section |  min time  |  avg time  |  max time  |%varavg| %total
---------------------------------------------------------------
Pair    | 1231.4     | 1284.1     | 1303.6     |  29.6 | 83.16
Neigh   | 88.56      | 89.914     | 92.028     |   9.7 |  5.82
Comm    | 8.0826     | 20.01      | 80.101     | 270.1 |  1.30
Output  | 1.0939     | 1.295      | 1.45       |   8.7 |  0.08
Modify  | 140.45     | 147.7      | 152        |  33.8 |  9.57
Other   |            | 1.07       |            |       |  0.07

Nlocal:             36 ave          36 max          36 min
Histogram: 32 0 0 0 0 0 0 0 0 0
Nghost:         3704.5 ave        3708 max        3700 min
Histogram: 11 0 0 0 0 6 0 0 0 15
Neighs:        30943.4 ave       31182 max       30738 min
Histogram: 1 4 5 4 6 3 1 5 1 2

Total # of neighbors = 990190
Ave neighs/atom = 859.53993
Neighbor list builds = 4000
Dangerous builds not checked
unfix           npt


write_data npt.lammps
System init for write_data ...

# isotropic volume relaxation to hydrostatic target

#fix             3 all box/relax  vmax 1.0e-3
#variable        emin equal pe+f_3/atoms
#thermo_style    custom step temp pe pxx pyy pzz f_3 v_emin  cella cellb cellc cellalpha cellbeta cellgamma
#minimize    1.0e-6 0.001 1000 10000

write_data final.lammps
System init for write_data ...
Total wall time: 0:25:44
