LAMMPS (2 Aug 2023 - Development - patch_2Aug2023-289-gafabb279a3)
  using 1 OpenMP thread(s) per MPI task
# REAX potential for
# .....

boundary        p p p
units           real

atom_style      charge
#read_data       ./lmp.data
read_data       ./final.lammps
Reading data file ...
  orthogonal box = (-0.74849428 -2.1406285 -7.2537986) to (3.6994943 6.0096285 253.9454)
  1 by 1 by 32 MPI processor grid
  reading atoms ...
  1152 atoms
  reading velocities ...
  1152 velocities
  read_data CPU = 0.012 seconds
replicate       1 1 1
Replication is creating a 1x1x1 = 1 times larger system...
  orthogonal box = (-0.74849428 -2.1406285 -7.2537986) to (3.6994943 6.0096285 253.9454)
  1 by 1 by 32 MPI processor grid
  1152 atoms
  replicate CPU = 0.002 seconds

#change_box all triclinic
pair_style      reax/c NULL
pair_coeff      * * ../../../ForceFiledFiles/ffield.reax.FC C F H
Reading potential file ../../../ForceFiledFiles/ffield.reax.FC with DATE: 2013-06-28
WARNING: Changed valency_val to valency_boc for X (src/REAXFF/reaxff_ffield.cpp:296)
neighbor        2. bin
neigh_modify    every 10 delay 0 check no
fix             q all qeq/reax 1 0.0 10.0 1e-6 reax/c

variable        dt_MD equal 0.1
variable        dt_MIN equal 10*v_dt_MD
timestep        ${dt_MD}
timestep        0.1
thermo_style    custom step temp epair etotal press fmax fnorm density
thermo          20
write_data      init.lmpdata
System init for write_data ...
Neighbor list info ...
  update: every = 10 steps, delay = 0 steps, check = no
  max neighbors/atom: 2000, page size: 100000
  master list distance cutoff = 12
  ghost atom cutoff = 12
  binsize = 6, bins = 1 2 44
  2 neighbor lists, perpetual/occasional/extra = 2 0 0
  (1) pair reax/c, perpetual
      attributes: half, newton off, ghost
      pair build: half/bin/newtoff/ghost
      stencil: full/ghost/bin/3d
      bin: standard
  (2) fix qeq/reax, perpetual, copy from (1)
      attributes: half, newton off
      pair build: copy
      stencil: none
      bin: none
variable        Tdamp equal 100*dt
variable        Pdamp equal 100*dt
compute         Mu all property/atom xu yu zu
variable        qx atom q*c_Mu[1]
variable        qy atom q*c_Mu[2]
variable        qz atom q*c_Mu[3]
compute         Mx all reduce sum v_qx
compute         My all reduce sum v_qy
compute         Mz all reduce sum v_qz
thermo_style    custom step temp epair etotal press fmax fnorm density vol c_Mx c_My c_Mz
dump            dcd all dcd 200 dump.dcd
dump_modify     dcd unwrap yes
dump            qxyz all custom 20 dump.qxyz.txt id q xu yu zu
dump_modify     qxyz sort id
dump            xyz_form all xyz 100 dump.xyz
dump_modify     xyz_form sort id

variable        T0 equal 300
variable        T1 equal 300
timestep        ${dt_MD}
timestep        0.1
#fix             npt all npt temp ${T0} ${T1} ${Tdamp}  aniso 0 0 ${Pdamp}
fix             npt all npt temp ${T0} ${T1} ${Tdamp}  iso 0 0 ${Pdamp}
fix             npt all npt temp 300 ${T1} ${Tdamp}  iso 0 0 ${Pdamp}
fix             npt all npt temp 300 300 ${Tdamp}  iso 0 0 ${Pdamp}
fix             npt all npt temp 300 300 10  iso 0 0 ${Pdamp}
fix             npt all npt temp 300 300 10  iso 0 0 10
fix             mom all momentum 1 linear 1 1 1
run             40000

CITE-CITE-CITE-CITE-CITE-CITE-CITE-CITE-CITE-CITE-CITE-CITE-CITE

Your simulation uses code contributions which should be cited:

- pair reaxff command: doi:10.1016/j.parco.2011.08.005

@Article{Aktulga12,
 author = {H. M. Aktulga and J. C. Fogarty and S. A. Pandit and A. Y. Grama},
 title = {Parallel Reactive Molecular Dynamics: {N}umerical Methods and Algorithmic Techniques},
 journal = {Parallel Computing},
 year =    2012,
 volume =  38,
 number =  {4--5},
 pages =   {245--259}
}

- fix qeq/reaxff command: doi:10.1016/j.parco.2011.08.005

@Article{Aktulga12,
 author = {H. M. Aktulga and J. C. Fogarty and S. A. Pandit and A. Y. Grama},
 title = {Parallel Reactive Molecular Dynamics: {N}umerical Methods and Algorithmic Techniques},
 journal = {Parallel Computing},
 year =    2012,
 volume =  38,
 pages =   {245--259}
}

CITE-CITE-CITE-CITE-CITE-CITE-CITE-CITE-CITE-CITE-CITE-CITE-CITE

Per MPI rank memory allocation (min/avg/max) = 64.55 | 64.68 | 64.72 Mbytes
   Step          Temp          E_pair         TotEng         Press           Fmax          Fnorm         Density         Volume          c_Mx           c_My           c_Mz     
         0   296.35023     -127714.71     -126697.95      4162.5473      237.49328      1936.6894      2.3327036      9469.0587      106.73254      3.3452968      57.037551    
        20   291.86243     -127698.17     -126696.81     -716.8425       307.12189      2066.7648      2.3300982      9479.6465      106.6511       3.244257       57.382792    
        40   298.66265     -127719.39     -126694.7      -3964.7736      215.91125      1906.5734      2.3329764      9467.9511      106.68792      3.1770047      56.285886    
        60   296.29664     -127707.42     -126690.85      1720.0253      210.5285       1933.1005      2.3342127      9462.9366      106.93064      3.2268438      54.407602    
        80   304.0476      -127727.29     -126684.13      3654.9121      215.33393      1880.6205      2.3314829      9474.0163      107.20868      3.367144       52.767149    
       100   301.97004     -127714.57     -126678.53     -4844.1437      238.24129      2062.5228      2.3281785      9487.4627      107.28477      3.4936426      52.346807    
       120   308.55698     -127734.05     -126675.42      5547.0231      290.02466      1994.4401      2.3322124      9471.0528      107.20472      3.4962034      53.258547    
       140   311.2503      -127739.55     -126671.68      1216.9243      278.74839      1969.157       2.3320741      9471.6144      107.23736      3.5002911      54.77077     
       160   301.03578     -127700.55     -126667.72     -7886.4042      229.34718      1927.652       2.3296486      9481.4757      107.40952      3.6203051      56.150096    
       180   298.65274     -127688.74     -126664.09      7613.1372      248.85562      2088.6529      2.3294255      9482.3837      107.52917      3.7683679      56.857897    
       200   303.30339     -127701        -126660.39      4038.984       298.92528      2010.6879      2.3312615      9474.9159      107.40815      3.796364       56.690932    
       220   303.25141     -127694.65     -126654.22     -7596.5782      258.83146      1879.6795      2.330605       9477.5847      107.18881      3.6115496      55.590812    
       240   302.47132     -127685.04     -126647.29     -11749.208      329.84532      1955.4733      2.3286082      9485.7121      107.09902      3.3961311      53.829466    
       260   295.6403      -127653.38     -126639.06      3033.318       255.69986      1984.4447      2.3340415      9463.6306      107.1018       3.3387656      52.213366    
       280   306.94983     -127681.79     -126628.67      11858.658      270.82737      1992.6971      2.3400045      9439.5145      107.11285      3.432508       51.666067    
       300   322.68138     -127726.38     -126619.28      14872.544      231.50299      1925.4146      2.344866       9419.9443      106.98735      3.4029645      52.82684     
       320   319.59413     -127710.72     -126614.22      7820.5092      351.85         2001.1873      2.3433918      9425.8702      106.84468      3.1169369      55.255311    
       340   314.32044     -127693.87     -126615.46     -813.36431      287.42034      1952.5117      2.3391558      9442.9397      106.84838      2.8455216      57.561185    
       360   299.87258     -127650        -126621.17     -9775.4499      324.67243      1982.4036      2.3352497      9458.7346      106.99706      2.7859086      58.740199    
       380   303.04008     -127667.82     -126628.12     -10296.897      184.81508      1856.1508      2.336886       9452.1115      107.19216      2.8785051      58.633535    
       400   307.32964     -127690.01     -126635.59     -12071.927      190.48908      1804.6056      2.3416687      9432.8061      107.30654      2.9154189      57.52575     
       420   305.23669     -127694.01     -126646.77     -10679.832      313.42116      1859.3263      2.3444821      9421.4868      107.36706      2.7895227      55.758933    
       440   301.7528      -127692.81     -126657.52     -12867.815      212.24461      1873.8513      2.3419406      9431.711       107.46121      2.7030029      53.53164     
       460   290.39035     -127666.13     -126669.82     -9094.1373      223.88258      1844.5207      2.3429127      9427.7975      107.50586      2.8567404      51.433273    
       480   296.20062     -127694.65     -126678.41      1105.0368      342.51266      1911.6233      2.3492806      9402.2428      107.48302      3.1263602      50.410188    
       500   296.34406     -127701.36     -126684.63      8354.8173      305.88367      1892.0138      2.3531377      9386.8316      107.46054      3.2510952      51.092324    
       520   289.47994     -127680.39     -126687.21      10487.931      285.88169      1965.7761      2.3503119      9398.1174      107.47275      3.1829219      53.00172     
       540   292.5762      -127692.11     -126688.3      -3904.0079      272.41895      1948.4313      2.3459428      9415.6204      107.42207      3.1110899      54.878298    
       560   298.05256     -127710.15     -126687.56     -7734.5254      295.90534      1940.1506      2.3444118      9421.7693      107.27084      3.2455818      55.7771      
       580   310.22179     -127750.4      -126686.05     -3521.7671      211.05446      1887.481       2.3429971      9427.4578      107.13624      3.5170561      55.522662    
       600   312.15466     -127758.7      -126687.73      5922.8979      291.33716      1936.694       2.3422474      9430.4756      107.01729      3.5925564      54.601011    
       620   304.1351      -127736.43     -126692.96     -53.490926      388.44565      2006.6465      2.3405853      9437.1724      106.94797      3.4136507      53.472286    
       640   305.47231     -127746.99     -126698.94     -4387.3278      175.32574      1896.3757      2.3410733      9435.2053      106.91966      3.2878419      52.093077    
       660   304.35368     -127749.32     -126705.11      3118.0505      319.1176       1996.6384      2.3404828      9437.5857      106.89067      3.3502006      50.701042    
       680   304.77786     -127757.37     -126711.71     -2627.4374      345.7879       1987.8388      2.3363553      9454.2584      106.94426      3.5382973      49.915881    
       700   292.32734     -127720.19     -126717.24      1478.4426      286.38848      1995.0299      2.3352784      9458.6182      106.98505      3.6265672      50.282059    
       720   287.4889      -127707.51     -126721.16      1775.7122      308.34933      1988.8151      2.333004       9467.8391      106.97915      3.4605104      51.723246    
       740   295.80031     -127737.45     -126722.58     -2817.9156      431.12872      2024.6497      2.3299857      9480.104       106.9475       3.2551657      53.370737    
       760   301.12915     -127754.8      -126721.65      3362.8066      224.90674      1984.0361      2.3313561      9474.5314      106.88346      3.2450398      54.415941    
       780   306.33428     -127773.56     -126722.55     -2237.6615      249.37778      1946.6729      2.3312292      9475.0472      106.8883       3.4396683      54.288219    
       800   303.91989     -127767.79     -126725.07     -826.33019      370.57588      2019.4032      2.3307814      9476.8675      106.87419      3.5348071      52.977602    
       820   291.4342      -127726.43     -126726.54      2637.871       250.66925      2070.9777      2.3289755      9484.2162      106.76382      3.3433031      51.271846    
       840   290.41484     -127722.59     -126726.2      -3289.6623      279.52293      1909.5089      2.3290704      9483.8294      106.6195       3.1220737      49.737016    
       860   290.61633     -127719.23     -126722.15      2204.6584      254.89963      1979.4046      2.3318868      9472.3752      106.55983      3.1632337      48.683293    
       880   303.38803     -127758.54     -126717.64      642.19252      213.6816       1907.0895      2.3351667      9459.0705      106.65255      3.4055428      48.545557    
       900   305.51413     -127762.43     -126714.23     -3879.6597      204.511        1883.3319      2.3377846      9448.4783      106.76521      3.5416569      49.627853    
       920   301.41479     -127748.32     -126714.19      5905.7144      252.75764      1911.2169      2.3390126      9443.5177      106.73771      3.4024041      51.723287    
       940   298.19754     -127737.41     -126714.32     -4863.4193      251.35005      1943.0888      2.3374439      9449.8552      106.6269       3.2026627      53.694128    
       960   299.39768     -127740.26     -126713.05      577.92753      276.84992      1993.0838      2.3379986      9447.6135      106.53694      3.1472904      54.483537    
       980   305.95421     -127762.51     -126712.81      8816.4434      221.713        1881.6391      2.3392083      9442.7275      106.60715      3.2878196      53.981674    
      1000   298.09045     -127733.58     -126710.86     -13206.518      339.34232      2001.2703      2.3337006      9465.0131      106.77687      3.4155375      52.899431    
      1020   292.14636     -127711.8      -126709.47      13635.467      371.78233      2153.4924      2.3412272      9434.5851      106.74948      3.3735725      51.881083    
      1040   294.04109     -127715.4      -126706.57     -11819.451      269.26108      1916.9608      2.3432967      9426.2528      106.69386      3.3588437      51.015502    
      1060   294.16729     -127713.58     -126704.31     -7772.3869      232.32859      1937.1875      2.3467296      9412.4635      106.74743      3.5705176      50.211335    
      1080   302.31167     -127732.71     -126695.51      16686.334      280.84115      1942.3905      2.3520427      9391.2014      106.90765      3.8854104      49.702084    
      1100   305.55436     -127734.78     -126686.45      3557.7111      311.82855      1958.518       2.3495269      9401.2572      107.02275      4.0598482      49.792701    
      1120   302.19607     -127711.27     -126674.46     -18623.66       153.31448      1812.0682      2.3437726      9424.3386      106.93417      4.0053182      50.601348    
      1140   304.85866     -127710.03     -126664.09     -3541.3778      230.96077      1926.6485      2.3435259      9425.3309      106.74111      3.8760179      51.895239    
      1160   308.82334     -127709.04     -126649.5       19258.514      283.36412      1985.3813      2.3477321      9408.4444      106.63724      3.8734986      53.00492     
      1180   310.33099     -127704.79     -126640.07      7950.7078      215.20617      1906.5249      2.3463083      9414.1535      106.73303      4.0350667      53.194465    
      1200   307.57492     -127685.38     -126630.12     -12429.332      183.35004      1864.2889      2.3438292      9424.1111      106.82676      4.1869285      52.407106    
      1220   306.41946     -127674.66     -126623.36     -12174.164      197.84511      1886.1087      2.3436625      9424.7813      106.7434       4.1508933      51.149708    
      1240   315.61026     -127701.61     -126618.78      5424.9815      311.52131      1995.7313      2.344349       9422.0214      106.55262      4.0010979      49.904529    
      1260   324.38371     -127732.39     -126619.45      11008.917      228.4982       1961.6623      2.3424818      9429.532       106.47446      3.9429204      49.209607    
      1280   317.65188     -127716.45     -126626.62     -10389.068      237.00428      1943.4327      2.3397812      9440.4154      106.62054      3.922665       49.498676    
      1300   308.20703     -127697.22     -126639.79     -2821.2088      327.20673      1957.0127      2.3388314      9444.2495      106.77556      3.7468354      50.858159    
      1320   294.40321     -127664.39     -126654.32      9619.8006      239.81085      1991.3194      2.3376356      9449.0805      106.75629      3.5022355      52.969705    
      1340   303.99241     -127708.04     -126665.07     -6659.4795      182.10648      1908.7449      2.3333262      9466.5318      106.61255      3.2906588      54.844292    
      1360   314.44976     -127752.93     -126674.08     -192.38323      347.26107      1928.3938      2.3317842      9472.792       106.49176      3.2199188      55.629503    
      1380   318.78488     -127776.64     -126682.92      727.02705      288.05476      1863.8279      2.3334498      9466.0302      106.51236      3.2825186      55.207385    
      1400   316.84763     -127781.26     -126694.19     -4114.8472      198.97668      1815.8772      2.3372151      9450.7805      106.57895      3.3180507      53.910623    
      1420   304.977       -127749.51     -126703.16      5267.9461      325.95311      1962.6082      2.3356035      9457.3017      106.55218      3.3024349      52.318315    
      1440   307.99495     -127766.66     -126709.96     -3861.3555      256.50074      1880.5001      2.3290891      9483.7535      106.41153      3.3362346      50.89237     
      1460   299.15508     -127743.14     -126716.76      1443.3415      302.518        1966.0098      2.3282143      9487.317       106.25964      3.4772809      49.85839     
      1480   293.26379     -127730.47     -126724.31      1632.9062      256.52863      1873.1867      2.3324366      9470.1425      106.31019      3.6209089      49.426363    
      1500   294.13        -127737.48     -126728.34     -4751.3448      271.06875      1891.8727      2.3342839      9462.6481      106.58012      3.6913175      49.882113    
      1520   287.96473     -127718.48     -126730.5       3269.2764      306.77426      1928.4398      2.3363393      9454.323       106.75625      3.7313918      51.243738    
      1540   296.16523     -127745.55     -126729.43      3080.5733      223.87335      1852.2928      2.3335997      9465.4225      106.66854      3.7947171      52.68017     
      1560   294.35562     -127736.66     -126726.75     -3582.3054      269.09941      1788.8014      2.3296322      9481.5427      106.39956      3.9543917      53.206643    
      1580   291.24442     -127721.87     -126722.63     -1989.4942      289.4036       1897.2883      2.3316382      9473.385       106.31151      4.1802025      52.631988    
      1600   301.34468     -127751.66     -126717.77      6596.6066      286.45986      1817.2332      2.3370006      9451.6478      106.58997      4.3018446      51.557456    
      1620   297.41484     -127730.1      -126709.7       1626.0568      222.44936      1874.0172      2.3395796      9441.2289      106.98796      4.311482       50.822213    
      1640   303.55138     -127741.56     -126700.1      -9176.7061      219.34196      1772.6671      2.3417913      9432.3124      107.13788      4.3078406      51.033195    
      1660   297.61573     -127713.3      -126692.21     -8993.6828      183.01895      1837.9897      2.3433365      9426.0925      107.01799      4.3289603      52.164983    
      1680   299.5985      -127714.42     -126686.52      8458.0814      270.30457      1817.737       2.3465982      9412.9908      106.98228      4.3328079      53.769573    
      1700   308.54391     -127736.89     -126678.31      18006.495      246.48999      1893.1878      2.3479698      9407.4919      107.19926      4.2280522      55.416307    
      1720   296.18482     -127688.27     -126672.08      645.00645      242.88152      1905.1425      2.3477858      9408.2293      107.41079      4.0262599      56.415298    
      1740   300.83734     -127696.13     -126663.98     -13238.033      220.45247      1796.1747      2.3508832      9395.8332      107.36483      3.8957873      55.836054    
      1760   300.67033     -127688.73     -126657.15     -17180.31       174.64352      1821.1962      2.3495516      9401.1584      107.14654      3.9467454      53.452393    
      1780   301.94953     -127685.8      -126649.84     -19783.308      174.95222      1824.3866      2.3466472      9412.7939      107.05867      4.0987297      50.17126     
      1800   309.77543     -127707.91     -126645.1      -14776.24       274.13522      1835.1161      2.3458904      9415.8305      107.22284      4.1014755      47.661232    
      1820   300.27248     -127672.15     -126641.94      1810.9917      179.4781       1872.3375      2.3506049      9396.9458      107.40412      3.9035966      47.267029    
      1840   302.35025     -127675.57     -126638.23      5044.7569      225.35301      1885.6503      2.3505558      9397.142       107.45358      3.7299181      49.058092    
      1860   305.58344     -127682.79     -126634.36      10681.283      308.84786      1905.3887      2.3478036      9408.158       107.29929      3.7262244      51.942137    
      1880   309.55357     -127693.67     -126631.62      13397.674      286.25129      1888.2736      2.3470449      9411.1993      107.08299      3.7686349      54.701528    
      1900   316.51435     -127718.44     -126632.51      11408.719      192.60098      1836.6474      2.3458659      9415.9289      107.02546      3.6584813      56.54213     
      1920   299.36161     -127663.3      -126636.22      7187.5729      310.67122      1956.9963      2.3415685      9433.2099      107.07679      3.4024237      56.905548    
      1940   296.63652     -127661.88     -126644.15      3356.6287      191.99126      1854.6465      2.34172        9432.5994      107.03592      3.2347542      55.502819    
      1960   302.93748     -127693.94     -126654.59     -3743.5969      177.31142      1782.5048      2.3419378      9431.7221      106.88222      3.3416454      52.822022    
      1980   298.11309     -127690.47     -126667.67     -7327.5151      239.11873      1958.3358      2.342026       9431.367       106.77894      3.611596       50.147271    
      2000   299.57075     -127709.79     -126681.99     -5432.288       194.31724      1787.7932      2.3386173      9445.114       106.8869       3.7641998      49.116294    
      2020   289.26052     -127688.47     -126696.05      3152.668       217.50407      1842.4303      2.3352772      9458.6232      107.02937      3.7442957      50.460894    
      2040   292.61849     -127710.09     -126706.15      6639.6111      293.00163      1927.3759      2.3360801      9455.3721      107.00113      3.7826847      53.480697    
      2060   298.21278     -127738.22     -126715.08      2294.2477      272.92681      1891.8307      2.3354623      9457.8733      106.85796      4.0379908      56.600011    
      2080   299.52458     -127747.75     -126720.1      -1854.1331      176.09433      1737.8971      2.3343759      9462.2751      106.76137      4.3565979      58.311071    
      2100   300.91382     -127757.32     -126724.91     -5429.8068      209.22441      1783.6467      2.3313388      9474.602       106.83268      4.4989682      58.003518    
      2120   292.21088     -127730.81     -126728.26     -5837.1815      177.62067      1799.521       2.3300866      9479.6936      106.92472      4.3973071      56.010954    
      2140   291.26424     -127729.91     -126730.61     -3680.9903      219.28115      1844.5832      2.3328012      9468.6622      106.90782      4.3077858      53.260627    
      2160   299.38597     -127757.83     -126730.66     -2013.9173      192.58719      1765.1224      2.3335111      9465.7816      106.86882      4.4474792      50.841529    
      2180   303.49516     -127772.62     -126731.36      2552.3872      234.16139      1786.3902      2.3348736      9460.2582      106.90754      4.6787447      49.620947    
      2200   302.8724      -127770.65     -126731.52      9588.2873      201.21266      1797.0753      2.3386838      9444.8452      107.06512      4.7490024      50.027628    
      2220   296.06079     -127749.2      -126733.44      14272.477      241.62642      1823.481       2.3425317      9429.3312      107.22777      4.5453786      51.887163    
      2240   289.37692     -127726.4      -126733.57      13653.305      254.17637      1937.5632      2.3443992      9421.8199      107.22761      4.2589612      54.186615    
      2260   292.75192     -127736.52     -126732.12     -5194.9925      170.13209      1766.8358      2.3443836      9421.8827      107.09546      4.1679873      55.598746    
      2280   301.1425      -127755.52     -126722.32     -21862.766      175.50672      1760.7237      2.3407429      9436.5368      107.01982      4.2051135      55.435702    
      2300   303.48279     -127757.03     -126715.81     -14632.279      180.0795       1801.1479      2.3413796      9433.9707      107.04732      4.1397241      53.980889    
      2320   302.64685     -127746.6      -126708.24      6936.7904      213.78429      1840.2534      2.3482638      9406.3139      107.1424       3.9277432      52.153844    
      2340   299.86351     -127726.13     -126697.32      11768.851      201.96666      1863.2786      2.3514349      9393.6287      107.24104      3.7124698      50.92986     
      2360   299.07578     -127709.69     -126683.59      20681.809      288.71586      2011.1985      2.352235       9390.4336      107.28706      3.7136294      50.729427    
      2380   298.96208     -127693.91     -126668.2       17752.986      258.55113      1905.4628      2.3531331      9386.8499      107.27231      3.8649214      51.384444    
      2400   295.42681     -127668.49     -126654.91      14175.254      288.60226      1999.5788      2.3539277      9383.6811      107.26371      3.878292       52.740778    
      2420   300.59678     -127673.92     -126642.6       9036.0944      278.69068      1984.2371      2.3551129      9378.9586      107.31181      3.6347571      54.415769    
      2440   305.237       -127680.27     -126633.02     -3603.2475      211.18643      1907.7339      2.3584884      9365.5354      107.35605      3.4129213      55.450086    
      2460   310.33779     -127693.01     -126628.27     -629.30841      210.17039      1881.5489      2.3618566      9352.1796      107.34594      3.4444863      55.167451    
      2480   311.61907     -127694.7      -126625.56     -10126.203      219.74622      1914.6775      2.3538318      9384.0632      107.36159      3.5983884      53.588967    
      2500   314.03187     -127705.87     -126628.45     -1454.2536      226.06161      1945.3795      2.3534918      9385.4192      107.35368      3.7000649      51.343629    
      2520   311.28538     -127700.16     -126632.17      7370.675       371.9381       2092.0986      2.3528799      9387.8599      107.44865      3.6862722      49.475269    
      2540   310.86836     -127705.51     -126638.94      3944.2991      244.03787      1919.9946      2.3517278      9392.4589      107.59428      3.6421918      48.820137    
      2560   310.51206     -127713.69     -126648.35     -9255.9767      274.38421      1865.8101      2.3527518      9388.3709      107.67147      3.8110804      49.323522    
      2580   301.66785     -127694.1      -126659.1       4474.9283      246.59944      1958.7679      2.3562518      9374.4253      107.62311      4.0814742      50.679506    
      2600   296.31927     -127685.98     -126669.33      2734.6648      232.7232       2018.4489      2.3554406      9377.6537      107.49052      4.1545171      52.566365    
      2620   302.74388     -127712.64     -126673.95     -8769.1584      184.71132      1885.0894      2.3515766      9393.0629      107.37631      4.0343322      54.07952     
      2640   298.54767     -127703.47     -126679.18      2104.1118      290.25391      2009.3515      2.344168       9422.7491      107.24962      3.9101873      54.51797     
      2660   299.62838     -127713.21     -126685.21      3080.3347      242.05577      1895.0174      2.3395393      9441.3917      107.03342      4.0209191      53.644727    
      2680   299.53629     -127717.66     -126689.97     -9302.6303      202.85613      1906.204       2.3352079      9458.9036      106.85395      4.2277832      51.867295    
      2700   295.25148     -127705.13     -126692.15     -411.68968      265.49477      1964.6523      2.332874       9468.3669      106.77677      4.2779272      50.323338    
      2720   296.2598      -127709.8      -126693.35      10067.913      243.88401      2007.2645      2.331733       9473.0001      106.76756      4.1661419      49.85394     
      2740   299.26937     -127720.82     -126694.05     -7013.8292      317.79545      1900.1986      2.3273785      9490.724       106.67829      3.984166       50.56913     
      2760   299.81394     -127721.95     -126693.32     -13864.882      241.5184       1919.5721      2.3284276      9486.4476      106.45725      3.9789517      52.304909    
      2780   300.06547     -127724.11     -126694.61      6111.8087      346.91823      1927.3978      2.3364312      9453.9513      106.27588      4.1043892      54.743963    
      2800   299.88002     -127721.97     -126693.11      19532          275.40059      1961.4034      2.3397721      9440.4523      106.28452      4.0420238      57.184593    
      2820   304.45622     -127736.79     -126692.23      27468.761      260.93316      2030.8837      2.3365557      9453.4476      106.39878      3.792088       58.318024    
      2840   307.38413     -127750.43     -126695.82      11108.345      188.35761      1841.6095      2.3305935      9477.6317      106.42135      3.5415589      57.472435    
      2860   301.65527     -127734.94     -126699.99     -8936.4659      258.25478      1824.2163      2.3257825      9497.2365      106.37761      3.4255965      55.149041    
      2880   291.71428     -127706.33     -126705.49     -12186.357      210.16723      1776.332       2.3283522      9486.7548      106.44466      3.4211576      52.437312    
      2900   287.41184     -127699.17     -126713.08     -5120.8301      207.95454      1859.7071      2.334464       9461.9179      106.70686      3.3234126      50.765897    
      2920   288.32887     -127708.29     -126719.06     -10223.775      156.71633      1798.5695      2.3393773      9442.0455      107.01518      3.107775       50.728327    
      2940   286.20682     -127706.88     -126724.92     -6268.1339      182.61956      1764.3511      2.344137       9422.8738      107.0606       2.9380135      51.858033    
      2960   282.65659     -127697.31     -126727.54     -5938.7925      195.15125      1817.015       2.345287       9418.2534      106.84509      2.9522854      53.693949    
      2980   286.89541     -127709.77     -126725.46     -3644.8644      280.72478      1866.2772      2.3472489      9410.381       106.63475      3.1123082      55.480935    
      3000   289.65483     -127712.59     -126718.81     -536.10927      307.95168      1895.7287      2.3494963      9401.3797      106.6677       3.2038911      56.406551    
      3020   303.44784     -127751.25     -126710.15     -3073.9984      183.64532      1772.2257      2.3500246      9399.2662      106.90806      3.19581        55.844255    
      3040   298.20177     -127721.98     -126698.87     -6586.5522      223.75412      1877.2867      2.3514456      9393.5859      107.07327      3.2559187      53.673515    
      3060   293.5139      -127695.75     -126688.73     -6944.7432      283.99217      1946.7021      2.3527411      9388.4136      107.07467      3.4506817      50.757628    
      3080   299.72006     -127705.35     -126677.04     -6046.1993      282.26109      1890.1196      2.3540643      9383.1366      107.06304      3.7095687      48.288584    
      3100   302.46364     -127703.84     -126666.11     -5759.0154      222.55427      1872.9685      2.350905       9395.7464      107.215        3.864524       47.406808    
      3120   309.83019     -127718.5      -126655.5      -7906.1395      272.33169      1923.5655      2.3473835      9409.8416      107.4008       3.8775801      48.57352     
      3140   308.24523     -127707.92     -126650.36     -9334.7213      210.39207      1847.9306      2.349703       9400.5526      107.31676      3.8684623      51.382812    
      3160   306.74008     -127701.54     -126649.14     -8238.8377      247.18297      1901.0402      2.3522553      9390.3528      107.04519      3.9340425      55.100843    
      3180   309.64884     -127711.08     -126648.7      -8525.4503      178.84469      1790.7256      2.3490677      9403.0949      106.89733      4.0247409      58.40064     
      3200   299.37321     -127676.47     -126649.34     -9567.4488      199.09182      1820.0372      2.3413305      9434.1685      106.94077      4.0303487      60.051648    
      3220   301.32902     -127685.19     -126651.36     -10445.678      168.82833      1830.1509      2.336102       9455.2837      107.03607      3.9220322      59.734681    
      3240   298.52048     -127677.67     -126653.47     -11130.831      170.82475      1840.4232      2.3351239      9459.244       107.04425      3.7956322      57.92788     
      3260   298.34016     -127679.89     -126656.32     -13036.025      183.11859      1791.4784      2.3341743      9463.0923      106.96351      3.7214909      55.689695    
      3280   303.64475     -127699.71     -126657.93     -15938.625      198.93841      1785.7406      2.3302362      9479.0849      106.86584      3.6334644      53.975797    
      3300   306.38636     -127711.98     -126660.8      -19731.603      324.87346      1863.9073      2.3284378      9486.4063      106.73198      3.4569567      53.534711    
      3320   311.21596     -127736.38     -126668.62     -9934.2599      185.91171      1787.9769      2.3358056      9456.4832      106.5773       3.2829097      54.636501    
      3340   300.63224     -127712.07     -126680.62     -13376.687      225.71768      1870.7886      2.337119       9451.1691      106.51638      3.2480915      56.888275    
      3360   295.09515     -127707.34     -126694.89     -13219.391      196.06396      1836.7285      2.3353801      9458.2062      106.51992      3.3250124      59.484945    
      3380   297.88824     -127732.54     -126710.51     -1621.1795      366.64216      1930.5049      2.3312963      9474.7745      106.58277      3.4867074      61.265264    
      3400   295.42893     -127737.56     -126723.97     -935.57479      365.58734      1883.9615      2.3290872      9483.7611      106.68142      3.6704364      61.319466    
      3420   297.99098     -127755.85     -126733.47      4733.4435      179.576        1789.7739      2.3294018      9482.4805      106.86995      3.7477838      59.49545     
      3440   295.70635     -127753.15     -126738.61      16630.459      230.98551      1902.8782      2.3324407      9470.1256      107.11031      3.8365838      56.465645    
      3460   292.77314     -127746.37     -126741.89      14123.114      257.14297      1923.6665      2.3332598      9466.8014      107.23739      3.9296401      53.400131    
      3480   298.07148     -127766.27     -126743.61      7970.3233      238.87074      1870.5324      2.3364183      9454.0034      107.13347      3.9663944      51.440422    
      3500   296.26675     -127762.59     -126746.13     -4247.0441      364.17223      1965.8494      2.339301       9442.3535      106.90897      3.9493206      51.331829    
      3520   303.87019     -127789.49     -126746.94     -11218.6        324.3477       1865.5299      2.3396991      9440.7467      106.77215      3.8438896      53.129468    
      3540   305.41152     -127796.57     -126748.73     -2207.3964      294.86846      1887.6919      2.3380794      9447.2868      106.79184      3.7605537      55.877173    
      3560   296.638       -127766.65     -126748.92      9880.6269      250.27672      1977.8296      2.3383332      9446.2615      106.85974      3.8130571      58.328511    
      3580   294.91518     -127761.44     -126749.61      6647.4718      364.30956      2011.5737      2.3392864      9442.4124      106.91791      4.0044985      59.192183    
      3600   292.68224     -127754.28     -126750.12     -6469.5158      258.49668      1883.8146      2.3442951      9422.2382      106.99794      4.2057579      57.930751    
      3620   291.03094     -127745.79     -126747.29     -10288.511      222.47999      1893.6233      2.3480613      9407.1254      107.20894      4.3398093      55.53354     
      3640   290.01222     -127738.33     -126743.33     -6163.1243      265.33126      1958.2528      2.3514587      9393.5337      107.44397      4.4572433      53.319725    
      3660   296.05414     -127750.69     -126734.95      3705.957       243.25531      1858.316       2.3558577      9375.9935      107.48402      4.5207004      52.173168    
      3680   302.41957     -127764.48     -126726.91      9788.6521      321.77763      1925.8438      2.3592925      9362.3434      107.30135      4.5283536      52.72564     
      3700   301.09547     -127750.89     -126717.86      10260.353      220.46189      1858.7829      2.3596378      9360.9735      107.13559      4.4608293      54.896753    
      3720   304.81035     -127755.53     -126709.75      11460.273      229.56493      1859.9482      2.3575561      9369.2393      107.21048      4.4053865      57.843008    
      3740   310.83573     -127770.38     -126703.93      8533.5648      271.03204      1771.4931      2.3563337      9374.0995      107.44516      4.4943456      60.574581    
      3760   298.15989     -127722.8      -126699.84      5749.1974      238.63253      1918.4139      2.3552965      9378.2279      107.57691      4.5985846      62.270756    
      3780   295.59723     -127710.45     -126696.29      51.188676      198.83179      1768.8497      2.3546034      9380.9884      107.47024      4.5731334      62.269594    
      3800   296.40817     -127707.75     -126690.79      2843.9596      184.18958      1801.1747      2.3526051      9388.9563      107.27388      4.447172       60.812295    
      3820   303.30231     -127726.12     -126685.52      1320.1598      305.58868      1891.1776      2.3486563      9404.7423      107.15562      4.2777005      58.785902    
      3840   312.90833     -127755.82     -126682.25      4593.9008      238.87853      1802.2093      2.3481742      9406.6728      107.03755      4.1075054      56.980583    
      3860   309.1076      -127743.42     -126682.9       11714.626      232.95997      1805.5138      2.3475616      9409.1275      106.81502      3.9651297      56.327061    
      3880   303.47769     -127726.4      -126685.2       726.33995      214.0161       1792.9433      2.3434108      9425.7937      106.50725      3.7756334      57.220727    
      3900   297.78098     -127708.24     -126686.58      3876.0463      231.00725      1854.5552      2.3411474      9434.9067      106.23451      3.5445031      59.096095    
      3920   296.93602     -127705.82     -126687.06     -2825.824       291.55695      1875.5356      2.3369387      9451.8982      106.1946       3.4123507      61.040136    
      3940   303.23777     -127727.23     -126686.84     -9294.5105      277.79128      1816.9008      2.3354309      9458.0006      106.38938      3.5037426      62.238348    
      3960   298.18329     -127710.92     -126687.88     -1162.8801      190.63148      1804.2584      2.3346801      9461.0421      106.65754      3.7680156      62.287968    
      3980   301.53248     -127722.8      -126688.27     -6729.5561      184.85152      1809.826       2.3284184      9486.4852      106.81221      3.964755       61.12197     
      4000   303.01594     -127728.41     -126688.79     -11905.151      249.42614      1785.1319      2.3262072      9495.5026      106.75305      3.9755307      59.280147    
      4020   298.76363     -127714.54     -126689.51     -10293.117      200.41174      1839.1316      2.3247012      9501.6541      106.67548      3.9376132      57.473172    
      4040   304.56269     -127735.09     -126690.16     -8171.8002      299.98344      1847.2009      2.3249686      9500.5614      106.66613      3.9909975      56.096848    
      4060   303.78296     -127736.53     -126694.28     -3404.7978      236.02685      1781.4077      2.3280337      9488.0528      106.66278      4.0977559      55.623562    
      4080   305.43262     -127743.96     -126696.05      5716.9303      231.6122       1900.4533      2.3310394      9475.8189      106.6311       4.1667874      56.329682    
      4100   306.14856     -127751.26     -126700.89      7402.4529      355.55321      1966.5967      2.3331271      9467.3395      106.55409      4.1506411      57.893177    
      4120   303.8588      -127751.47     -126708.96     -3804.2246      291.40075      1865.2284      2.3317026      9473.1236      106.54953      4.1501445      59.345939    
      4140   298.44115     -127741.24     -126717.31     -6642.8168      205.90463      1863.7793      2.332504       9469.8686      106.69076      4.367471       59.752419    
      4160   297.01329     -127743.58     -126724.55      8860.0273      244.30614      1973.0919      2.3355755      9457.4151      106.90249      4.7046293      58.77114     
      4180   302.01794     -127766.62     -126730.42     -3324.8151      212.74678      1801.7301      2.3366566      9453.0393      107.02595      4.8599648      57.109621    
      4200   297.10988     -127757.68     -126738.32     -7883.806       223.94681      1842.8025      2.3387889      9444.4209      106.98122      4.6655515      55.985422    
      4220   293.79867     -127752.66     -126744.67     -74.597269      294.25068      1912.4042      2.3397058      9440.7198      106.84844      4.2768809      55.678144    
      4240   287.88697     -127737.37     -126749.66      8320.6242      287.5699       1901.3247      2.338802       9444.368       106.79213      4.0529088      55.934207    
      4260   282.15048     -127719.93     -126751.9      -11113.074      201.35505      1850.6295      2.3404808      9437.5936      106.91451      4.0847371      56.703205    
      4280   288.94618     -127741.06     -126749.71      628.94343      237.59619      1856.6285      2.346925       9411.6799      107.16544      4.1505647      57.993985    
      4300   292.21214     -127744.64     -126742.08      12984.396      209.1752       1878.2852      2.3494679      9401.4934      107.40336      4.0059412      59.444883    
      4320   298.32391     -127755.64     -126732.11      10031.495      363.87041      1908.7672      2.3494596      9401.5264      107.4955       3.760869       60.421689    
      4340   298.95515     -127744.4      -126718.71     -16974.464      220.11151      1908.6418      2.3426242      9428.9587      107.50192      3.6393332      60.587915    
      4360   304.74675     -127752.34     -126706.78     -2711.3745      262.03001      1861.742       2.342613       9429.0037      107.44625      3.6802671      60.222003    
      4380   302.22829     -127730.39     -126693.47      25099.734      268.01812      2027.455       2.3475583      9409.141       107.37856      3.7337298      60.067053    
      4400   300.80339     -127719.8      -126687.77     -2891.6749      276.3814       1914.6604      2.3475086      9409.34        107.31004      3.5291485      60.455043    
      4420   297.36798     -127698.92     -126678.67     -25682.393      265.55073      1951.9387      2.3473902      9409.8147      107.20964      3.1571561      60.960015    
      4440   294.99606     -127686.92     -126674.81      12227.596      284.70498      1992.8505      2.3523215      9390.0884      107.0684       2.9391814      61.086907    
      4460   300.98717     -127699.97     -126667.31      19798.438      257.84865      1967.2167      2.3527058      9388.5545      107.0419       3.0661702      60.763765    
      4480   308.33099     -127721.74     -126663.88     -17043.081      253.81174      1802.4109      2.3466992      9412.5856      107.15199      3.2903268      60.206063    
      4500   302.4992      -127703.57     -126665.73     -5398.4227      320.23972      1892.3103      2.3464412      9413.6204      107.26842      3.3049824      59.425976    
      4520   294.76705     -127675.62     -126664.3       13042.926      256.64364      1944.0431      2.3481754      9406.6683      107.35737      3.2078363      58.190986    
      4540   299.51273     -127693.44     -126665.84     -2794.8155      173.37253      1822.7704      2.3419487      9431.6783      107.36851      3.221228       56.417146    
      4560   304.49889     -127707.52     -126662.81     -7886.3971      212.06977      1889.9811      2.3344113      9462.1314      107.27826      3.4401376      54.466103    
      4580   310.94857     -127730.9      -126664.06      7161.8935      222.20164      1918.6426      2.3327199      9468.9924      107.11934      3.660889       53.281689    
      4600   305.88023     -127716.1      -126666.65     -801.58801      215.03949      1865.413       2.3343111      9462.5377      107.01064      3.6289672      53.251774    
      4620   300.12018     -127700.9      -126671.22     -6232.7357      214.08343      1870.154       2.3355874      9457.367       107.03827      3.4523338      53.755115    
      4640   296.91364     -127694.88     -126676.2       8305.7168      224.29443      1988.2534      2.3375218      9449.5404      107.10304      3.4801792      54.1039      
      4660   298.42224     -127703.2      -126679.34     -6975.6366      231.72051      1884.4222      2.334401       9462.1732      107.15499      3.8417617      54.013491    
      4680   294.70758     -127693.47     -126682.35     -2947.7072      238.76225      1915.3563      2.3336713      9465.1318      107.15422      4.2651565      53.828281    
      4700   285.39227     -127661.48     -126682.32      8209.2318      380.26321      2045.3013      2.3310617      9475.7282      107.14741      4.410336       53.858125    
      4720   293.63057     -127688.19     -126680.76     -5364.1734      242.20931      1868.0411      2.3258355      9497.0203      107.17307      4.3096129      53.917684    
      4740   310.70041     -127743.06     -126677.07     -4525.3312      252.07506      1855.9947      2.3262999      9495.1244      107.11999      4.2480732      53.979976    
      4760   312.50454     -127744.72     -126672.55      9153.3293      238.74075      1912.8982      2.3307082      9477.1653      106.98262      4.3420919      54.316417    
      4780   308.26715     -127729.78     -126672.14     -3867.8211      275.91802      1937.1242      2.3347276      9460.8496      106.91017      4.4349797      55.291389    
      4800   307.2277      -127732.06     -126677.99     -9636.2001      207.36168      1853.3387      2.3369774      9451.7415      106.96987      4.2619292      56.633921    
      4820   301.52613     -127717.46     -126682.95      13263.285      277.52997      1996.9033      2.3387587      9444.5427      107.08793      3.8993897      57.357506    
      4840   300.90137     -127723.85     -126691.48     -9154.3666      206.82724      1874.6248      2.3347804      9460.6357      107.23277      3.76042        57.041085    
      4860   295.41626     -127718.41     -126704.86     -12720.595      225.13473      1846.8874      2.3323009      9470.6932      107.34673      3.8983975      56.21317     
      4880   291.49617     -127719.91     -126719.81      18118.112      358.58798      1978.58        2.3354963      9457.7358      107.44491      4.0381661      55.83873     
      4900   289.57197     -127725.05     -126731.55     -2442.612       246.00176      1847.4801      2.3373544      9450.2171      107.55239      3.9266453      56.273141    
      4920   282.65076     -127707.4      -126737.65     -20940.029      181.624        1845.0819      2.3382269      9446.6909      107.62557      3.5879196      57.145542    
      4940   289.69337     -127737.14     -126743.23      5219.9645      224.83619      1837.0929      2.3439381      9423.6732      107.59361      3.3278419      58.161199    
      4960   290.46732     -127738.01     -126741.44      13517.7        286.54559      1980.7348      2.3470555      9411.1567      107.52576      3.3633582      59.204614    
      4980   286.28115     -127719.49     -126737.28     -18090.663      211.40957      1846.3979      2.3468411      9412.0163      107.53435      3.4640503      60.178944    
      5000   293.57767     -127739.49     -126732.25     -7704.8385      223.30147      1858.5171      2.3506364      9396.82        107.61976      3.3526815      60.559113    
      5020   295.5141      -127736.5      -126722.61      18538.104      246.71373      1933.0606      2.3553768      9377.9078      107.74044      3.1854261      59.576787    
      5040   297.39367     -127734.56     -126714.23     -1556.6098      205.12884      1916.7613      2.3517125      9392.5202      107.87552      3.2263298      57.181098    
      5060   308.8424      -127763.1      -126703.49     -11888.042      229.71279      1793.5703      2.3477156      9408.5103      107.9245       3.5604755      54.024774    
      5080   311.23382     -127763.5      -126695.68      10676.77       213.45397      1819.2928      2.3493604      9401.9236      107.89085      3.9292607      51.280768    
      5100   308.29027     -127749.78     -126692.06     -2812.8305      214.73432      1860.2554      2.3470027      9411.3684      107.85567      3.9694105      49.87535     
      5120   296.43033     -127707.25     -126690.22     -4997.2331      219.97646      1900.0749      2.3471189      9410.9025      107.75632      3.7843213      49.76891     
      5140   297.11018     -127707.93     -126688.57      6486.9098      220.33355      1853.4901      2.3487789      9404.2511      107.5749       3.6916909      50.652866    
      5160   300.89689     -127717.83     -126685.48     -3358.6981      218.82889      1919.9872      2.3475635      9409.1199      107.32657      3.8420836      52.211687    
      5180   301.27586     -127717.91     -126684.25     -1725.9428      266.84106      1904.1973      2.3459347      9415.6527      107.12538      4.1256206      54.061575    
      5200   308.45825     -127740.9      -126682.61      5627.4531      246.6594       1877.686       2.3428442      9428.0731      107.08078      4.260308       55.405813    
      5220   295.07364     -127693.79     -126681.41     -6184.7263      319.38198      1952.6078      2.336288       9454.5309      107.12341      4.3043833      55.367059    
      5240   292.37179     -127684.15     -126681.05      3244.4595      296.07097      1915.8957      2.3327238      9468.9766      107.11294      4.39696        53.930254    
      5260   301.40468     -127713.96     -126679.87      3847.879       209.17313      1860.3276      2.3303486      9478.6278      107.03922      4.5482036      51.938454    
      5280   295.12779     -127689.68     -126677.12     -6741.6848      303.43994      1950.4725      2.3284794      9486.2367      106.98341      4.6159036      50.7246      
      5300   304.88987     -127720.43     -126674.38      3851.6463      285.35214      1887.4759      2.3305842      9477.6696      106.93581      4.3059379      50.982981    
      5320   300.00526     -127702.79     -126673.5       4339.3551      218.79999      1828.9516      2.330861       9476.5441      106.83911      3.834514       52.318636    
      5340   293.48721     -127678.15     -126671.22     -6533.2946      233.01851      1982.1611      2.3260827      9496.0111      106.68299      3.478297       54.348538    
      5360   315.91721     -127754.34     -126670.46     -3923.7223      233.23324      1820.4399      2.3219945      9512.73        106.52178      3.3687037      56.429327    
      5380   310.49088     -127738.01     -126672.75      10677.554      259.43592      1863.9034      2.323187       9507.847       106.44859      3.4740228      57.786277    
      5400   306.77448     -127727.8      -126675.29     -3903.6059      235.80084      1860.1843      2.3247417      9501.4887      106.57264      3.4149736      57.74557     
      5420   302.14555     -127714.64     -126678        -11729.273      219.78956      1861.6524      2.3251677      9499.7479      106.79875      3.1953918      56.028887    
      5440   299.28832     -127707.05     -126680.22      15802.194      361.47184      2020.9064      2.3301128      9479.5869      106.86656      3.0391764      53.416888    
      5460   308.0139      -127737.11     -126680.34     -12639.301      235.87259      1805.3786      2.329932       9480.3226      106.72875      2.9427383      51.395694    
      5480   294.26878     -127693.72     -126684.11     -128.38025      262.2374       1887.1954      2.3345448      9461.5905      106.50019      2.9329137      51.284761    
      5500   297.53411     -127705.81     -126685         14339.682      345.37294      1950.089       2.3369869      9451.7031      106.44896      2.7731144      52.931973    
      5520   299.01007     -127710.73     -126684.85     -17719.331      228.22761      1889.8038      2.3349401      9459.9886      106.55295      2.569475       55.237937    
      5540   298.24196     -127711.39     -126688.14      11434.64       208.05569      1841.7457      2.3426092      9429.0189      106.61633      2.6833176      57.371453    
      5560   307.55334     -127744.03     -126688.84      13800.084      289.72768      1914.8346      2.3420736      9431.1754      106.66983      2.9850722      58.746913    
      5580   296.92655     -127708.22     -126689.5      -11047.663      263.41728      1882.5723      2.3361269      9455.1828      106.7619       3.2794108      59.020231    
      5600   300.65814     -127721.01     -126689.48     -17368.545      244.35505      1847.0113      2.3347662      9460.6932      106.9345       3.2828375      58.006977    
      5620   308.20889     -127749.97     -126692.53      13075.317      236.07062      1831.6777      2.3449732      9419.5135      107.06628      2.9767295      55.833895    
      5640   296.7781      -127714.16     -126695.94      13370.095      401.97235      1944.5923      2.349697       9400.5768      107.14675      2.7362622      53.529682    
      5660   302.04036     -127737.78     -126701.5       2018.5682      280.60319      1884.4446      2.350591       9397.0013      107.08495      2.6519756      52.106573    
      5680   296.60842     -127723.36     -126705.72     -9946.6018      205.90847      1862.0191      2.3483142      9406.1123      106.87819      2.6740812      52.047694    
      5700   304.08666     -127755.05     -126711.76     -6819.7876      311.91052      1831.8538      2.3473026      9410.166       106.71703      2.6814108      53.219875    
      5720   308.63962     -127776.64     -126717.72      6686.9499      256.90998      1766.1798      2.350277       9398.2568      106.71869      2.6498502      54.324131    
      5740   290.84982     -127726.17     -126728.29      1510.7416      203.52931      1842.5599      2.3500145      9399.3065      106.84973      2.7149573      54.7623      
      5760   291.10665     -127734.08     -126735.32     -4780.0992      315.01422      1864.8853      2.3478843      9407.8343      106.99744      2.8800571      54.461707    
      5780   284.27891     -127714.98     -126739.65      3780.3265      230.28749      1840.4474      2.3489977      9403.3751      107.00275      3.0298585      53.538944    
      5800   285.4366      -127722.1      -126742.79     -2073.7965      303.89635      1898.1851      2.3484142      9405.7117      106.96224      2.9763651      52.205162    
      5820   294.03907     -127749.8      -126740.98      1358.7476      297.33632      1825.9578      2.3490944      9402.9883      106.96004      2.7283378      50.696856    
      5840   288.31815     -127726.12     -126736.92      2225.1502      186.99045      1857.6547      2.3489316      9403.6397      106.95026      2.4819667      49.69323     
      5860   299.19133     -127756.06     -126729.56     -3603.5993      215.00251      1821.4724      2.3464808      9413.4617      106.90196      2.3868117      49.825222    
      5880   299.08876     -127746.45     -126720.3       3947.9071      281.73232      1903.4613      2.3439849      9423.4851      106.72548      2.3933637      51.200417    
      5900   297.50562     -127728.22     -126707.5      -2859.2996      265.89587      1899.5337      2.3378324      9448.2849      106.55058      2.3025787      52.96854     
      5920   304.32005     -127736.33     -126692.24      587.40371      290.93841      1920.2194      2.3332328      9466.9109      106.52408      2.1507605      54.014364    
      5940   299.47245     -127706.93     -126679.47      2867.3909      229.60649      1911.1363      2.3324578      9470.0565      106.62672      2.1091835      54.076907    
      5960   309.98221     -127731.28     -126667.76     -3396.1051      219.37526      1823.5463      2.3293344      9482.7546      106.79146      2.1288148      53.521906    
      5980   308.45266     -127719.24     -126660.97      570.14181      353.52816      1929.8623      2.3276919      9489.4462      106.74532      2.1048803      53.064967    
      6000   297.47154     -127677.82     -126657.22      5649.9352      255.34575      1927.8219      2.3295999      9481.674       106.43294      1.9876529      52.999315    
      6020   309.11287     -127715.93     -126655.39      1075.1957      236.52874      1818.3664      2.3262635      9495.2729      106.12159      1.8280794      52.992031    
      6040   302.97059     -127693.13     -126653.66     -7690.8952      232.26549      1875.798       2.3236564      9505.9263      105.92114      1.796216       53.152908    
      6060   308.42899     -127713.81     -126655.62      1804.0264      312.28136      1917.6144      2.3255765      9498.0781      105.89635      2.0381692      53.490044    
      6080   315.43152     -127741.01     -126658.8       10035.116      210.21297      1825.9054      2.3275955      9489.8392      105.95963      2.4455346      53.539095    
      6100   309.19311     -127726.24     -126665.43      2482.6506      289.7357       1952.05        2.3273877      9490.6865      106.04684      2.8030173      52.900242    
      6120   314.88993     -127752.6      -126672.24     -11958.439      346.8564       1859.1207      2.3266861      9493.5482      106.19357      3.0051445      51.298963    
      6140   301.29676     -127713.48     -126679.76     -10586.848      289.34807      1811.7472      2.3282568      9487.1437      106.38929      3.0802635      49.453044    
      6160   294.9049      -127700.63     -126688.84     -3167.6531      220.9117       1791.9301      2.3313513      9474.5511      106.62249      3.1393198      48.344772    
      6180   298.48485     -127718.22     -126694.15      1941.0026      193.923        1799.9636      2.3344387      9462.0203      106.7387       3.2509345      48.501129    
      6200   296.15053     -127713.26     -126697.19      5961.8539      404.77209      1950.3508      2.3371536      9451.029       106.67505      3.3081141      49.561772    
      6220   303.62508     -127740.99     -126699.28      12680.209      264.49675      1964.3299      2.3407027      9436.6989      106.60192      3.2714994      50.406908    
      6240   297.78023     -127723.98     -126702.32      16639.935      293.14897      1923.8128      2.3432823      9426.3108      106.65271      3.2301523      50.829389    
      6260   300.32928     -127732.83     -126702.42      15363.605      348.09789      1938.6398      2.3466276      9412.8727      106.85895      3.2686813      51.11244     
      6280   310.65616     -127769.5      -126703.66      14472.222      261.56187      1891.4052      2.3494679      9401.4935      107.11942      3.4435242      51.446925    
      6300   307.10636     -127763.15     -126709.5       1673.2881      167.1311       1745.2637      2.3522985      9390.1804      107.29438      3.6326127      51.834896    
      6320   303.90042     -127756.64     -126713.99     -8276.4742      251.41466      1909.5882      2.3504508      9397.5618      107.38371      3.6790555      51.814948    
      6340   293.01031     -127725.82     -126720.53     -14823.541      231.48456      1864.1841      2.3472356      9410.4345      107.34259      3.5507407      51.530067    
      6360   285.43808     -127705.75     -126726.44     -2824.4132      382.81329      2002.1693      2.3471951      9410.5968      107.23345      3.3820923      51.65435     
      6380   293.98862     -127735.68     -126727.03      9622.3707      327.02048      1925.426       2.349923       9399.6724      107.06657      3.3681353      52.542674    
      6400   295.47939     -127739.72     -126725.96      3521.8573      217.49154      1865.7502      2.3501004      9398.963       106.9224       3.4397675      53.535131    
      6420   304.46152     -127767.75     -126723.17     -9931.371       290.67805      1921.7774      2.3492359      9402.4218      106.88906      3.4684294      53.440653    
      6440   297.41625     -127741.66     -126721.25      8125.4209      249.84916      1984.1212      2.3512442      9394.3907      106.92964      3.5080564      52.066274    
      6460   297.91636     -127741.14     -126719.02      649.44299      219.61563      1862.8789      2.3488756      9403.8642      107.06495      3.6180344      50.244086    
      6480   301.07584     -127747.37     -126714.4      -5262.2593      199.47097      1883.3262      2.3467473      9412.3927      107.20112      3.8606185      48.962805    
      6500   292.79054     -127710.77     -126706.23      1012.1343      218.47002      1932.577       2.3469881      9411.4268      107.25895      4.0897181      48.55211     
      6520   300.47464     -127723.74     -126692.84      3405.5369      273.24079      1926.5412      2.3419693      9431.5952      107.28946      4.1603757      48.48185     
      6540   300.57057     -127706.01     -126674.78     -676.04892      232.55558      1891.6284      2.3370299      9451.5296      107.17824      4.1308718      48.389757    
      6560   302.81704     -127695.67     -126656.73     -2852.7431      216.99502      1920.8544      2.3403868      9437.9725      106.94544      4.0929948      48.540789    
      6580   316.42535     -127728.02     -126642.39     -480.91893      201.43743      1870.3783      2.343227       9426.533       106.81961      4.2146858      49.178661    
      6600   313.81895     -127712.27     -126635.58      2909.7509      246.2249       1975.7738      2.3402218      9438.6382      106.88653      4.5243286      49.909386    
      6620   317.61078     -127723.72     -126634.03      797.17144      250.94659      1975.6815      2.3356006      9457.3134      107.02249      4.8324125      49.937397    
      6640   309.41469     -127697.47     -126635.89     -2552.7367      230.21754      1843.0182      2.3339614      9463.9555      107.07853      5.0689015      49.308338    
      6660   301.52517     -127674.32     -126639.82     -2491.3822      217.0738       1902.3999      2.3342028      9462.9768      107.14908      5.2924194      48.894796    
      6680   304.48453     -127689.35     -126644.69      2886.0823      254.62305      1907.0685      2.3336205      9465.3381      107.32941      5.5514205      49.531355    
      6700   301.18806     -127685.2      -126651.85      1932.3068      221.56838      1966.1676      2.3321218      9471.4207      107.43014      5.7580522      51.003074    
      6720   310.30822     -127722.69     -126658.05     -3995.1012      204.69121      1880.6682      2.3313068      9474.7318      107.29741      5.7898497      52.008511    
      6740   305.70778     -127717.06     -126668.2      -809.0456       222.95058      1908.7839      2.3335375      9465.6747      107.00219      5.648319       52.220969    
      6760   300.96658     -127709.67     -126677.08      4431.9053      271.00713      1905.2807      2.3342989      9462.5871      106.82865      5.5405478      52.277709    
      6780   302.12322     -127724.26     -126687.7       5106.9403      306.35496      1964.917       2.3339101      9464.1634      106.92543      5.6637692      52.722072    
      6800   293.70357     -127704.71     -126697.04     -4013.2419      234.2481       1938.7111      2.3352271      9458.8259      107.12279      5.8994081      53.246629    
      6820   297.06491     -127721.67     -126702.47     -7497.0672      213.72522      1840.4266      2.3377574      9448.5882      107.23416      6.0056753      53.109087    
      6840   293.31197     -127714.05     -126707.73     -5768.441       231.63765      1881.2862      2.338533       9445.4544      107.24873      5.9665742      52.633618    
      6860   289.96919     -127704.36     -126709.5       3433.0487      257.94123      1929.9707      2.3412632      9434.4399      107.2527       5.8308579      52.746556    
      6880   298.34163     -127732.14     -126708.56      10094.125      211.40832      1803.2716      2.3453953      9417.8183      107.28248      5.6732095      53.767286    
      6900   294.70096     -127717.83     -126706.74      10194.554      220.29471      1854.3919      2.3479426      9407.6009      107.23985      5.5156648      55.245019    
      6920   307.57621     -127759.68     -126704.41      11771.358      268.53908      1797.0399      2.3485168      9405.3008      107.06355      5.3226636      56.163768    
      6940   306.80523     -127757.67     -126705.05      8995.5677      277.90522      1936.9994      2.3488666      9403.9002      106.84235      5.2057887      56.080603    
      6960   302.14927     -127744.34     -126707.7       871.24992      250.53974      1915.7387      2.347555       9409.1539      106.79594      5.1986879      55.312962    
      6980   311.07825     -127776.84     -126709.56      307.75271      330.97103      1860.586       2.3466366      9412.8365      107.00852      5.3733394      54.270455    
      7000   304.28612     -127757.4      -126713.42     -2974.457       181.25612      1801.5515      2.3442452      9422.4387      107.30517      5.6346153      53.219648    
      7020   299.61043     -127747.04     -126719.1      -7837.8901      379.52207      1878.7112      2.3447258      9420.5074      107.45565      5.7477794      52.22984     
      7040   288.01649     -127714.96     -126726.8      -12330.655      216.195        1847.6607      2.3496025      9400.9547      107.43083      5.7418593      51.475959    
      7060   280.48006     -127692.39     -126730.09     -12832.487      194.95657      1835.0607      2.3525441      9389.1997      107.37909      5.7304074      51.45874     
      7080   291.85792     -127730.88     -126729.54     -12054.071      279.96644      1863.2988      2.3516628      9392.7185      107.36671      5.7423427      52.557264    
      7100   294.16126     -127735.07     -126725.82     -1554.9772      300.16814      1831.7346      2.3486058      9404.9444      107.2669       5.7459386      54.166262    
      7120   296.42525     -127734.74     -126717.73      9553.6199      282.54393      1934.7731      2.3474643      9409.5176      106.99534      5.6415191      55.043205    
      7140   297.42428     -127724.63     -126704.2       13104.463      269.61192      1860.3045      2.3492643      9402.3081      106.73299      5.5443397      54.951635    
      7160   293.50361     -127688.9      -126681.91      15365.168      217.11018      1871.8459      2.3471321      9410.8493      106.75561      5.5569459      54.567661    
      7180   304.39404     -127704.1      -126659.75      12998.473      303.91558      1912.3926      2.3439139      9423.7707      107.01288      5.6845215      54.597212    
      7200   311.85059     -127713.3      -126643.37      2963.2924      260.39145      1852.1113      2.342886       9427.905       107.1595       5.7956023      55.026087    
      7220   306.10334     -127685.38     -126635.17     -1640.1676      233.38702      1897.0292      2.3417225      9432.5892      106.99841      5.6914621      55.18518     
      7240   301.29231     -127664.49     -126630.78     -11378.514      207.64133      1884.6066      2.3369702      9451.771       106.69163      5.4141147      54.845001    
      7260   297.111       -127645.97     -126626.61     -13949.708      242.73055      1890.9453      2.3333754      9466.3323      106.48459      5.1503081      54.589192    
      7280   310.20354     -127687.94     -126623.66     -12210.727      281.37735      1891.0165      2.3321385      9471.3528      106.47758      5.0355593      55.178568    
      7300   321.00076     -127724.82     -126623.5      -3069.3411      273.04114      1820.8018      2.3342923      9462.614       106.48255      5.0384797      56.280516    
      7320   312.1566      -127698.15     -126627.17      2089.1072      232.07519      1933.5777      2.3323516      9470.4875      106.36597      5.0105923      56.739658    
      7340   311.79735     -127706.39     -126636.64      10711.039      198.47774      1890.0384      2.3324661      9470.0228      106.22019      4.8971379      55.812399    
      7360   310.25936     -127712.95     -126648.48      12372.437      349.90265      1941.9026      2.3325375      9469.7329      106.27973      4.815189       53.965644    
      7380   306.2656      -127713.44     -126662.67      2613.0779      224.85351      1918.5182      2.3316177      9473.4684      106.5871       4.8550642      52.509653    
      7400   310.92124     -127742.59     -126675.85     -7192.8103      159.96616      1766.28        2.3331374      9467.2979      106.86484      4.8183344      52.203936    
      7420   299.91438     -127719.46     -126690.48     -9743.573       282.24743      1855.8354      2.3354698      9457.843       106.86221      4.569792       52.665401    
      7440   291.8481      -127701.85     -126700.55      8401.1408      307.64227      1939.2692      2.3404134      9437.8655      106.67889      4.1637423      53.235616    
      7460   289.82226     -127701.59     -126707.24      6125.2458      240.4692       1953.2509      2.3410053      9435.4792      106.61688      3.7786973      53.825277    
      7480   295.08181     -127721.08     -126708.68     -5681.9322      238.88077      1868.9546      2.3385792      9445.2679      106.7773       3.6167678      54.741371    
      7500   300.13906     -127738.31     -126708.56     -2063.5187      300.62287      1961.5566      2.3414305      9433.7658      106.98005      3.5477293      55.591787    
      7520   293.10927     -127715.88     -126710.25      6499.9641      275.30169      1933.9779      2.3474897      9409.416       107.04549      3.4097849      55.340409    
      7540   293.32815     -127717.46     -126711.08      6473.7096      253.79062      1921.2572      2.3497853      9400.2236      107.06957      3.2576297      53.676755    
      7560   290.69858     -127704.56     -126707.2       1870.3748      266.3332       1999.5881      2.3465298      9413.265       107.17664      3.1545441      51.762333    
      7580   292.26597     -127703.99     -126701.25     -5021.0708      257.7617       1927.855       2.345353       9417.9882      107.30585      3.1636852      51.181429    
      7600   302.1388      -127729.93     -126693.31     -5558.7385      240.92771      1848.6519      2.3490542      9403.149       107.32824      3.189864       52.167154    
      7620   305.07837     -127732.84     -126686.14     -1130.7605      228.09164      1922.5977      2.3541661      9382.7308      107.16689      3.0257009      53.695215    
      7640   316.28702     -127764.92     -126679.77      3045.211       245.18328      1896.8095      2.3591293      9362.9911      106.92015      2.7331906      54.914664    
      7660   313.12766     -127750.28     -126675.97      5678.7845      279.34797      1968.8278      2.3558639      9375.9688      106.77719      2.5721839      55.699461    
      7680   298.37658     -127701.9      -126678.19      45.066054      326.81124      1971.784       2.3501348      9398.8256      106.73144      2.7012067      56.384573    
      7700   299.08154     -127705.32     -126679.19     -4627.8581      301.56135      1860.2568      2.3495593      9401.1278      106.67612      2.9617214      56.964828    
      7720   293.69814     -127685.66     -126678.01     -5731.6724      230.89713      1917.2046      2.3485738      9405.0725      106.64877      3.0865603      56.765615    
      7740   297.86546     -127698.62     -126676.67     -5258.2714      381.53984      1984.5204      2.3455509      9417.1933      106.66746      2.9766752      55.551421    
      7760   295.99199     -127690.31     -126674.79     -324.08287      222.33436      1938.533       2.3445977      9421.0223      106.67773      2.7740012      54.264646    
      7780   294.28735     -127678.35     -126668.68      4672.2974      313.6823       1955.4678      2.348911       9403.7222      106.6639       2.6727691      53.982162    
      7800   298.89274     -127684.71     -126659.23      11126.824      209.30564      1891.0475      2.3553267      9378.1076      106.60259      2.5628148      54.788429    
      7820   301.23673     -127681.5      -126647.98      11382.257      568.48124      2200.2321      2.3525271      9389.2679      106.56474      2.2145323      55.899355    
      7840   315.93924     -127718.01     -126634.05      8895.9937      291.26443      1935.4353      2.3453593      9417.9627      106.53889      1.7780177      56.429747    
      7860   316.97136     -127710.19     -126622.69     -5803.6258      317.3208       1862.9393      2.3406505      9436.9094      106.47664      1.5636018      56.140516    
      7880   312.31727     -127687.49     -126615.96     -12564.539      202.19094      1871.6017      2.3416459      9432.8978      106.50746      1.7022852      55.580582    
      7900   306.488       -127665.32     -126613.79     -15952.095      205.466        1909.3749      2.3412708      9434.4094      106.70005      1.9513786      54.861301    
      7920   303.07269     -127652.68     -126612.87     -18736.076      198.74854      1869.2268      2.3375293      9449.5103      106.86744      2.0010375      53.616378    
      7940   308.74481     -127672.76     -126613.48     -18993.839      164.37981      1747.9955      2.332888       9468.3102      106.80994      1.8437831      51.939546    
      7960   301.37566     -127650.61     -126616.61     -7088.9114      245.17182      1920.8485      2.3341981      9462.9959      106.53295      1.6903859      50.566686    
      7980   302.79366     -127662.63     -126623.77     -1809.8557      220.38321      1890.5321      2.3365127      9453.6215      106.34546      1.7003802      50.520683    
      8000   307.61095     -127684.95     -126629.57     -64.26886       204.43209      1846.9121      2.3357248      9456.8105      106.35576      1.7420649      51.972362    
      8020   307.44011     -127693.19     -126638.39      7429.401       280.71679      1917.7597      2.3353736      9458.2328      106.3733       1.6833841      53.848406    
      8040   307.36662     -127705.78     -126651.24      9384.2368      198.76279      1896.159       2.3395663      9441.2828      106.24706      1.6006127      54.786849    
      8060   296.40246     -127685.6      -126668.67      8895.1612      231.0697       1871.5984      2.3384533      9445.7762      106.12673      1.6666898      54.487002    
      8080   302.49053     -127720.06     -126682.24      8841.5507      201.44053      1823.4762      2.3344265      9462.0701      106.16528      1.9421653      53.772188    
      8100   297.76612     -127715.31     -126693.7       7746.0621      255.37574      1842.2798      2.3318901      9472.3619      106.30612      2.1963538      53.351579    
      8120   292.12123     -127702.98     -126700.73      8349.0803      173.76984      1853.2914      2.3339379      9464.0506      106.38866      2.123551       53.273605    
      8140   298.18443     -127728.25     -126705.2       7345.6699      265.03716      1826.769       2.3364844      9453.7361      106.38222      1.8065267      53.333186    
      8160   290.06641     -127702.62     -126707.43      5524.066       180.12965      1780.3422      2.3377385      9448.6645      106.35857      1.5997493      53.655307    
      8180   296.23273     -127723.73     -126707.38      4687.4519      292.6877       1836.4038      2.3383106      9446.3527      106.42578      1.6517071      54.626524    
      8200   298.40623     -127727.21     -126703.4       207.11472      336.44232      1917.2639      2.3395405      9441.3868      106.58324      1.813391       56.115044    
      8220   296.94744     -127720.88     -126702.08     -2445.4868      229.16604      1832.1448      2.3426526      9428.8445      106.77129      1.93411        57.265914    
      8240   303.06786     -127739.7      -126699.9      -3941.386       227.34874      1776.7504      2.3473288      9410.0609      106.91079      2.0356249      57.191034    
      8260   294.83396     -127710.59     -126699.04     -4697.1118      231.35153      1858.3203      2.3475059      9409.3511      107.01547      2.2533036      55.815054    
      8280   303.86299     -127739.17     -126696.65     -5711.1926      259.4324       1842.2109      2.3440973      9423.0333      107.13089      2.571423       54.066256    
      8300   301.57344     -127728.99     -126694.32     -5487.8563      207.19985      1868.823       2.3442596      9422.3808      107.16787      2.7742975      52.704023    
      8320   303.60129     -127732.73     -126691.1      -4761.841       204.15719      1774.4506      2.345685       9416.6553      107.14994      2.6925713      51.839018    
      8340   309.45831     -127753.9      -126692.18     -3017.689       184.71541      1804.3529      2.3457527      9416.3832      107.12871      2.4169186      51.429778    
      8360   299.25015     -127722.43     -126695.73      3033.4013      259.91211      1929.6938      2.3473987      9409.7807      107.10084      2.3105488      51.534288    
      8380   307.2954      -127752.09     -126697.79      5723.188       421.19922      1903.8311      2.3483502      9405.9681      107.12916      2.5629125      52.307863    
      8400   309.85211     -127766.26     -126703.19      5333.1765      232.36998      1883.918       2.3502514      9398.3591      107.17092      2.8783853      53.687361    
      8420   304.06312     -127758.36     -126715.14      413.41837      216.33909      1861.9185      2.3509598      9395.5271      107.23636      3.0176304      55.17942     
      8440   301.66693     -127766.37     -126731.37     -4700.5813      300.18401      1946.0205      2.3502281      9398.4523      107.31153      3.0016254      56.137652    
      8460   290.1313      -127744.34     -126748.92     -8305.2574      218.25961      1905.2697      2.3453203      9418.1195      107.33767      3.0045655      56.174351    
      8480   291.64006     -127762.07     -126761.48     -2820.4689      308.63698      1886.3877      2.3404743      9437.6197      107.27413      3.1420752      55.69387     
      8500   286.21828     -127751.69     -126769.7       7640.97        369.49729      2014.7129      2.3405647      9437.2552      107.09926      3.2113417      55.231019    
      8520   281.75394     -127738.87     -126772.2       9722.3809      233.38102      1928.3743      2.3413968      9433.9013      106.96988      3.0713477      55.253885    
[...]
     37940   296.06752     -127697.17     -126681.39     -7658.4218      161.29249      1823.3894      2.3332082      9467.0106      106.39588      2.7741172      53.538373    
     37960   298.23833     -127703.94     -126680.71      4828.0364      338.75215      1982.7447      2.3354001      9458.1252      106.42862      2.7861926      53.885587    
     37980   297.31778     -127699.63     -126679.55      10407.154      293.97976      1898.2357      2.336659       9453.0296      106.4466       2.8982617      53.772949    
     38000   299.52533     -127705.59     -126677.94     -2361.0231      247.98986      1839.5663      2.3360468      9455.5071      106.42728      2.9210848      53.504376    
     38020   307.96648     -127728.92     -126672.31     -9189.0289      187.60614      1822.3759      2.3373826      9450.1032      106.41148      2.7898523      53.018186    
     38040   314.30411     -127748.71     -126670.36     -871.67126      197.51394      1771.5099      2.3384539      9445.774       106.45923      2.6207723      52.330857    
     38060   306.3532      -127725.42     -126674.34      8862.923       201.17676      1949.9814      2.3387004      9444.7784      106.5616       2.5826757      51.715749    
     38080   302.5279      -127718.83     -126680.89      3357.2024      235.11887      1889.5935      2.3385146      9445.5288      106.64329      2.6782193      51.681012    
     38100   302.60694     -127725.76     -126687.54     -7179.275       360.90966      1936.6691      2.3351122      9459.2914      106.6734       2.6815701      52.241526    
     38120   306.7935      -127750.09     -126697.51     -6184.7327      227.46234      1756.908       2.3362089      9454.8508      106.64749      2.5301444      52.61248     
     38140   296.26879     -127724.74     -126708.26     -2913.347       256.34616      1802.4403      2.3388385      9444.2206      106.64044      2.38651        52.273608    
     38160   288.98755     -127712.5      -126721.01      1805.4591      368.85605      1947.6333      2.3426015      9429.05        106.68987      2.4108814      51.423556    
     38180   293.85765     -127740.17     -126731.97      6768.5893      249.72155      1830.5538      2.3484344      9405.6307      106.78926      2.5971963      50.943488    
     38200   292.60297     -127741.91     -126738.02      8832.0216      247.67592      1814.7646      2.3515017      9393.3618      106.8644       2.6684685      51.254608    
     38220   288.89534     -127734.41     -126743.24      6120.7094      349.74329      1923.7944      2.3496047      9400.9458      106.88792      2.6035894      51.831846    
     38240   288.39919     -127733.87     -126744.4       919.59494      202.23723      1816.4347      2.3442994      9422.2211      106.85769      2.5994256      51.983504    
     38260   288.66638     -127732.38     -126741.99     -12702.864      217.13401      1758.8018      2.3395208      9441.4662      106.76599      2.7288538      51.757017    
     38280   293.66145     -127744.63     -126737.1      -16585.435      257.54504      1825.2741      2.3403293      9438.2047      106.67749      2.8966658      52.142812    
     38300   299.94215     -127761.03     -126731.95     -17567.344      184.22362      1785.8093      2.3436514      9424.826       106.68408      2.9037328      53.627124    
     38320   301.44832     -127760.97     -126726.73      7271.1326      197.96872      1889.9367      2.349654       9400.7488      106.73909      2.7445858      55.433185    
     38340   299.85924     -127746.01     -126717.22      27275.092      308.60083      1939.7111      2.3545957      9381.0188      106.75796      2.6277782      56.636437    
     38360   295.15571     -127725.28     -126712.63      17313.259      196.65815      1831.7245      2.3520348      9391.2331      106.7706       2.7016399      56.961445    
     38380   296.62279     -127719.24     -126701.56     -11749.376      165.10529      1766.8706      2.3435859      9425.0894      106.85749      2.944086       56.899949    
     38400   298.97294     -127715.66     -126689.91     -21436.984      186.07         1781.7688      2.3396841      9440.8074      107.00489      3.0736311      56.780936    
     38420   302.64664     -127715.96     -126677.6      -889.18243      312.92331      1933.2022      2.3417719      9432.3903      107.15376      2.9897946      56.216254    
     38440   306.09887     -127713.81     -126663.61      16587.931      219.84248      1940.2613      2.3453238      9418.1053      107.18832      2.8929965      54.973353    
     38460   307.98694     -127708.28     -126651.6       8132.0473      316.59918      1916.2607      2.3429287      9427.7333      107.07723      3.0026322      53.56546     
     38480   306.00856     -127694.07     -126644.18     -2090.8679      261.85746      1861.9441      2.3375718      9449.3382      106.94249      3.2777582      53.079204    
     38500   306.9891      -127690.82     -126637.57     -10133.685      243.39728      1839.7758      2.3332409      9466.878       106.86706      3.4066602      54.017106    
     38520   307.85705     -127693.73     -126637.5      -9296.0805      189.41639      1811.0939      2.3319786      9472.0025      106.87229      3.3739452      55.632085    
     38540   314.64282     -127718.29     -126638.78     -3242.4966      247.35307      1828.2412      2.3343806      9462.2559      106.92156      3.4469176      56.734595    
     38560   315.42966     -127724.51     -126642.3       3026.9257      359.74047      1962.6612      2.3379376      9447.86        106.89739      3.6722567      56.705753    
     38580   308.00016     -127706.26     -126649.54      9252.6797      190.47889      1922.8597      2.3402942      9438.3462      106.81402      3.9441349      56.17232     
     38600   310.99118     -127722.82     -126655.84      7069.0896      219.07101      1866.5253      2.3382816      9446.4697      106.74894      4.0365873      55.888576    
     38620   310.67089     -127727.58     -126661.69     -10008.201      350.46577      2003.0879      2.3316203      9473.458       106.69044      3.817231       55.530278    
     38640   312.52138     -127744.48     -126672.24      4557.3738      279.75707      1916.5043      2.333801       9464.6059      106.58868      3.5660238      54.594824    
     38660   301.18175     -127718.87     -126685.54      5213.8819      268.1111       1912.7475      2.3357931      9456.5339      106.57243      3.5852694      53.297949    
     38680   290.09488     -127691.25     -126695.96     -8618.2271      260.0314       2026.9411      2.3337212      9464.9294      106.7183       3.7795085      52.691238    
     38700   296.84396     -127722.6      -126704.16     -4295.5644      233.18275      1900.4874      2.3345783      9461.4546      106.89362      3.848294       53.388451    
     38720   298.89767     -127734.51     -126709.01      11456.329      225.90315      1905.3301      2.3388739      9444.0778      106.98089      3.7210208      54.545779    
     38740   297.05173     -127732.61     -126713.45      3756.2909      256.77087      1839.054       2.3389806      9443.6469      107.0442       3.6192234      55.131239    
     38760   297.67142     -127737.62     -126716.34     -12083.489      266.81015      1835.8643      2.3375483      9449.4335      107.11091      3.7877402      54.839674    
     38780   295.87408     -127733.71     -126718.59     -10276.1        172.94581      1780.5269      2.3410871      9435.1495      107.14266      4.0746921      54.452996    
     38800   301.37153     -127756.62     -126722.64     -1802.1185      190.6226       1805.6829      2.3421633      9430.814       107.13023      4.1212675      54.661319    
     38820   303.24857     -127765.44     -126725.02      18975.665      195.2685       1902.2242      2.3455681      9417.1246      107.01933      3.9205585      54.950187    
     38840   293.36356     -127735.14     -126728.63      10861.972      251.60186      1856.616       2.3453255      9418.0986      106.91738      3.7620036      54.650708    
     38860   293.47136     -127734.9      -126728.03     -9378.7788      224.39515      1800.2888      2.3422454      9430.4834      106.93658      3.8947915      53.754252    
     38880   283.03788     -127695.7      -126724.62     -28349.515      232.61287      1862.0064      2.3404589      9437.682       107.06427      4.2693821      53.203702    
     38900   287.46485     -127707.14     -126720.88     -27929.805      186.76579      1865.4022      2.3425781      9429.1443      107.19316      4.4584787      53.737352    
     38920   302.89863     -127755.95     -126716.73     -2837.5521      172.07267      1769.7824      2.3474435      9409.6009      107.2381       4.3322402      54.756206    
     38940   305.56344     -127751.89     -126703.53      29444.352      305.00909      1916.7763      2.3530373      9387.2318      107.19917      4.1962214      55.319896    
     38960   305.15755     -127742.15     -126695.18      1470.2666      434.72954      1938.9614      2.3501212      9398.8799      107.20236      4.2921716      55.266479    
     38980   302.0575      -127720.15     -126683.82     -14312.704      212.61063      1825.2207      2.3463119      9414.1391      107.25616      4.5162999      55.575752    
     39000   305.66566     -127724.94     -126676.22     -2754.3051      197.36952      1909.7473      2.3447988      9420.2143      107.33474      4.5867886      57.129283    
     39020   320.05298     -127766.84     -126668.76      13395.663      234.79582      1875.3926      2.3454578      9417.5672      107.35192      4.3962465      59.084595    
     39040   315.38523     -127747.91     -126665.86      1168.5853      170.61136      1827.0584      2.3439971      9423.4362      107.33098      4.2456606      60.056202    
     39060   310.84474     -127732.74     -126666.26     -11820.998      193.14117      1831.8332      2.3429103      9427.8073      107.34341      4.3339575      59.523394    
     39080   298.66518     -127695.69     -126670.99      3711.1732      288.64398      1990.4988      2.3428361      9428.1058      107.35536      4.5677759      58.296828    
     39100   300.2803      -127707.88     -126677.65      513.59092      252.38609      1931.6214      2.3417636      9432.424       107.30002      4.7517239      57.614135    
     39120   310.08256     -127748.75     -126684.88     -9855.1932      166.81798      1802.1304      2.3421559      9430.8439      107.13377      4.6406384      57.569878    
     39140   303.01874     -127734.46     -126694.83      11676.875      308.35523      1988.4176      2.3445476      9421.2236      106.94703      4.454234       57.437629    
     39160   294.1569      -127720.28     -126711.06     -10859.579      247.11802      1946.3691      2.3403098      9438.2831      106.89899      4.5038298      56.83758     
     39180   287.40216     -127714.41     -126728.36      10395.035      241.36952      1933.085       2.3419296      9431.7551      106.90305      4.6843692      56.350721    
     39200   290.02273     -127735.95     -126740.91     -8009.4125      238.1095       1909.284       2.3369         9452.0548      106.94802      4.8027533      56.750871    
     39220   299.83594     -127780.67     -126751.96      4300.77        326.78331      1907.582       2.3373929      9450.0615      106.92123      4.7018348      57.451643    
     39240   292.9131      -127762.48     -126757.52      3009.607       258.95723      1831.5635      2.3353218      9458.4423      106.89035      4.4616286      57.345794    
     39260   290.26811     -127754.26     -126758.37     -9927.8488      272.84512      1841.6238      2.3346572      9461.1351      106.91079      4.4185332      56.118194    
     39280   292.21429     -127761.36     -126758.8       422.37282      289.25227      1875.7672      2.3375702      9449.3449      106.9531       4.5600685      54.511916    
     39300   296.65982     -127775.4      -126757.58      10998.896      278.67254      1921.7932      2.3398282      9440.2257      106.96543      4.5797858      53.686357    
     39320   298.88799     -127780.46     -126755        -8772.6201      251.66796      1802.2226      2.3373122      9450.3877      106.93383      4.3857683      53.718771    
     39340   290.30791     -127749.02     -126753        -7765.3116      316.09649      1786.2547      2.3371745      9450.9447      106.86041      4.1922231      53.904515    
     39360   286.73439     -127732.96     -126749.2       12412.774      251.3316       1854.5899      2.3396661      9440.8801      106.81796      4.168467       53.808511    
     39380   288.00958     -127731.58     -126743.44      5378.3764      243.10551      1870.5814      2.3379525      9447.7996      106.86079      4.2451501      53.934704    
     39400   295.17855     -127744.53     -126731.8      -20271.907      168.82194      1768.5754      2.3344374      9462.0258      106.92342      4.2285642      55.003601    
     39420   298.19973     -127749.08     -126725.99      6542.2643      222.17228      1858.1809      2.3376314      9449.0975      106.87656      4.0019635      56.3936      
     39440   298.0694      -127739.39     -126716.74      20953.89       238.8953       1905.8588      2.3388465      9444.1882      106.76094      3.7489055      56.699443    
     39460   301.28556     -127744.34     -126710.65     -13079.406      178.73363      1767.1373      2.3343128      9462.5307      106.68405      3.7013402      55.70007     
     39480   301.34428     -127739.32     -126705.44     -18697.615      234.92543      1756.7912      2.3338181      9464.5364      106.64076      3.803516       54.568866    
     39500   299.80839     -127728.2      -126699.59      25606.334      221.66472      1917.2789      2.3425245      9429.3598      106.63264      3.8583938      54.846611    
     39520   302.21533     -127735.32     -126698.45      7295.1331      336.11964      1852.6242      2.3417133      9432.6266      106.70449      3.7932638      56.590817    
     39540   296.62394     -127711.69     -126694        -12462.554      176.75634      1810.6465      2.3370869      9451.2988      106.72391      3.674939       58.356462    
     39560   298.57479     -127717.39     -126693        -10076.214      256.78209      1875.7491      2.3393438      9442.1805      106.65206      3.6788714      58.990315    
     39580   302.48581     -127728.55     -126690.75      4627.6892      194.20556      1799.8309      2.3437911      9424.2645      106.6329       3.8209944      58.717333    
     39600   304.30591     -127731.85     -126687.8       11228.408      271.24127      1881.7426      2.3419365      9431.7276      106.71836      3.8729353      58.734963    
     39620   308.339       -127743.97     -126686.08     -5407.7761      254.37702      1911.4606      2.3359318      9455.9723      106.759        3.7523422      59.352474    
     39640   304.81713     -127733.76     -126687.96     -2404.252       246.8961       1872.82        2.337643       9449.0506      106.6427       3.6178017      59.470686    
     39660   306.66925     -127743.8      -126691.65      7436.8478      242.40435      1831.375       2.3424237      9429.7657      106.53238      3.6284481      58.517382    
     39680   295.46753     -127709.22     -126695.49      8195.184       232.34594      1878.981       2.3455228      9417.3063      106.57838      3.7342438      57.370574    
     39700   291.22389     -127698.77     -126699.6      -6439.5618      290.8803       1942.3924      2.3421547      9430.8487      106.76518      3.743251       57.382469    
     39720   300.66829     -127734.43     -126702.86     -4030.7135      288.20707      1933.0959      2.3419058      9431.8512      106.844        3.5733945      58.493321    
     39740   300.61105     -127738.31     -126706.94      7364.6738      267.49984      1878.6512      2.343553       9425.222       106.73163      3.3089966      59.294722    
     39760   295.1194      -127725.93     -126713.4       7363.5359      322.52829      1889.017       2.343062       9427.1968      106.65091      3.1919175      58.916454    
     39780   283.20023     -127693.66     -126722.03     -5527.469       175.79558      1894.5694      2.3384898      9445.629       106.72294      3.3011142      57.760413    
     39800   287.60642     -127716.1      -126729.35     -8995.252       264.36467      1784.7933      2.335427       9458.0162      106.81865      3.4225311      57.00923     
     39820   303.85236     -127778.71     -126736.22      6173.9968      200.08604      1783.1216      2.3391561      9442.9384      106.81126      3.4430635      56.888422    
     39840   303.61713     -127786.11     -126744.42      7916.6832      194.13108      1881.9256      2.3390536      9443.3521      106.73663      3.4068289      56.370057    
     39860   299.26353     -127781.72     -126754.97     -10078.026      200.5317       1809.7735      2.3366174      9453.1981      106.68047      3.3924236      55.040791    
     39880   283.24657     -127737.74     -126765.95      4601.2795      260.39308      1903.2929      2.338003       9447.5957      106.66724      3.4874125      53.787435    
     39900   278.93262     -127726.56     -126769.57      9632.029       198.70836      1852.4046      2.3397601      9440.5008      106.67911      3.5364677      53.800319    
     39920   291.19743     -127770.02     -126770.95     -12933.613      279.95347      1814.6758      2.3340049      9463.7789      106.72097      3.4501336      55.095355    
     39940   290.53454     -127765.08     -126768.28     -3586.358       209.5198       1876.0892      2.3322664      9470.8333      106.69394      3.410816       56.388803    
     39960   293.48348     -127772.22     -126765.3       21083.34       267.8077       1927.27        2.335139       9459.183       106.57853      3.4041875      56.718533    
     39980   290.0575      -127755.95     -126760.78     -9968.1793      185.95536      1808.67        2.3289922      9484.1479      106.51644      3.3838757      56.480269    
     40000   288.95763     -127741.15     -126749.76     -14204.136      196.6356       1751.3559      2.3285325      9486.0202      106.47318      3.3303239      56.641938    
Loop time of 1541.21 on 32 procs for 40000 steps with 1152 atoms

Performance: 0.224 ns/day, 107.028 hours/ns, 25.954 timesteps/s, 29.899 katom-step/s
99.1% CPU use with 32 MPI tasks x 1 OpenMP threads

MPI task timing breakdown:
Section |  min time  |  avg time  |  max time  |%varavg| %total
---------------------------------------------------------------
Pair    | 1233.8     | 1284.8     | 1303.7     |  28.1 | 83.37
Neigh   | 88.885     | 89.918     | 91.969     |   9.0 |  5.83
Comm    | 8.1219     | 19.128     | 77.775     | 266.9 |  1.24
Output  | 1.0989     | 1.3009     | 1.455      |   8.7 |  0.08
Modify  | 136.64     | 144.89     | 149.28     |  37.2 |  9.40
Other   |            | 1.126      |            |       |  0.07

Nlocal:             36 ave          36 max          36 min
Histogram: 32 0 0 0 0 0 0 0 0 0
Nghost:           3700 ave        3708 max        3680 min
Histogram: 1 2 1 0 1 4 0 7 10 6
Neighs:        30864.2 ave       30997 max       30705 min
Histogram: 1 2 1 6 0 6 9 3 2 2

Total # of neighbors = 987656
Ave neighs/atom = 857.34028
Neighbor list builds = 4000
Dangerous builds not checked
unfix           npt


write_data npt.lammps
System init for write_data ...

# isotropic volume relaxation to hydrostatic target

#fix             3 all box/relax  vmax 1.0e-3
#variable        emin equal pe+f_3/atoms
#thermo_style    custom step temp pe pxx pyy pzz f_3 v_emin  cella cellb cellc cellalpha cellbeta cellgamma
#minimize    1.0e-6 0.001 1000 10000

write_data final.lammps
System init for write_data ...
Total wall time: 0:25:41
