LAMMPS (2 Aug 2023 - Development - patch_2Aug2023-289-gafabb279a3)
  using 1 OpenMP thread(s) per MPI task
# REAX potential for
# .....

boundary        p p p
units           real

atom_style      charge
read_data       ./lmp.data
Reading data file ...
  orthogonal box = (-0.636 -1.9345 -0.647798) to (3.587 5.8035 247.3394)
  1 by 1 by 32 MPI processor grid
  reading atoms ...
  1152 atoms
  read_data CPU = 0.018 seconds
#read_data       ./final.lammps
replicate       1 1 1
Replication is creating a 1x1x1 = 1 times larger system...
  orthogonal box = (-0.636 -1.9345 -0.647798) to (3.587 5.8035 247.3394)
  1 by 1 by 32 MPI processor grid
  1152 atoms
  replicate CPU = 0.002 seconds

#change_box all triclinic
pair_style      reax/c NULL
pair_coeff      * * ../../../ForceFiledFiles/ffield.reax.FC C F H
Reading potential file ../../../ForceFiledFiles/ffield.reax.FC with DATE: 2013-06-28
WARNING: Changed valency_val to valency_boc for X (src/REAXFF/reaxff_ffield.cpp:296)
neighbor        2. bin
neigh_modify    every 10 delay 0 check no
fix             q all qeq/reax 1 0.0 10.0 1e-6 reax/c

variable        dt_MD equal 0.5
variable        dt_MIN equal 10*v_dt_MD
timestep        ${dt_MD}
timestep        0.5
thermo_style    custom step temp epair etotal press fmax fnorm density
thermo          20
write_data      init.lmpdata
System init for write_data ...
Neighbor list info ...
  update: every = 10 steps, delay = 0 steps, check = no
  max neighbors/atom: 2000, page size: 100000
  master list distance cutoff = 12
  ghost atom cutoff = 12
  binsize = 6, bins = 1 2 42
  2 neighbor lists, perpetual/occasional/extra = 2 0 0
  (1) pair reax/c, perpetual
      attributes: half, newton off, ghost
      pair build: half/bin/newtoff/ghost
      stencil: full/ghost/bin/3d
      bin: standard
  (2) fix qeq/reax, perpetual, copy from (1)
      attributes: half, newton off
      pair build: copy
      stencil: none
      bin: none
variable        Tdamp equal 100*dt
variable        Pdamp equal 1000*dt
compute         Mu all property/atom xu yu zu
variable        qx atom q*c_Mu[1]
variable        qy atom q*c_Mu[2]
variable        qz atom q*c_Mu[3]
compute         Mx all reduce sum v_qx
compute         My all reduce sum v_qy
compute         Mz all reduce sum v_qz
thermo_style    custom step temp epair etotal press fmax fnorm density vol c_Mx c_My c_Mz
dump            dcd all dcd 200 dump.dcd
dump_modify     dcd unwrap yes
dump            qxyz all custom 20 dump.qxyz.txt id q xu yu zu
dump_modify     qxyz sort id
dump            xyz_form all xyz 100 dump.xyz
dump_modify     xyz_form sort id

variable        T0 equal 1300
variable        T1 equal 300
timestep        ${dt_MD}
timestep        0.5
#fix             npt all npt temp ${T0} ${T1} ${Tdamp}  aniso 0 0 ${Pdamp}
fix             npt all npt temp ${T0} ${T1} ${Tdamp}  iso 0 0 ${Pdamp}
fix             npt all npt temp 1300 ${T1} ${Tdamp}  iso 0 0 ${Pdamp}
fix             npt all npt temp 1300 300 ${Tdamp}  iso 0 0 ${Pdamp}
fix             npt all npt temp 1300 300 50  iso 0 0 ${Pdamp}
fix             npt all npt temp 1300 300 50  iso 0 0 500
fix             mom all momentum 1 linear 1 1 1
run             40000

CITE-CITE-CITE-CITE-CITE-CITE-CITE-CITE-CITE-CITE-CITE-CITE-CITE

Your simulation uses code contributions which should be cited:

- pair reaxff command: doi:10.1016/j.parco.2011.08.005

@Article{Aktulga12,
 author = {H. M. Aktulga and J. C. Fogarty and S. A. Pandit and A. Y. Grama},
 title = {Parallel Reactive Molecular Dynamics: {N}umerical Methods and Algorithmic Techniques},
 journal = {Parallel Computing},
 year =    2012,
 volume =  38,
 number =  {4--5},
 pages =   {245--259}
}

- fix qeq/reaxff command: doi:10.1016/j.parco.2011.08.005

@Article{Aktulga12,
 author = {H. M. Aktulga and J. C. Fogarty and S. A. Pandit and A. Y. Grama},
 title = {Parallel Reactive Molecular Dynamics: {N}umerical Methods and Algorithmic Techniques},
 journal = {Parallel Computing},
 year =    2012,
 volume =  38,
 pages =   {245--259}
}

CITE-CITE-CITE-CITE-CITE-CITE-CITE-CITE-CITE-CITE-CITE-CITE-CITE

Per MPI rank memory allocation (min/avg/max) = 66.32 | 66.32 | 66.32 Mbytes
   Step          Temp          E_pair         TotEng         Press           Fmax          Fnorm         Density         Volume          c_Mx           c_My           c_Mz     
         0   0             -117881.92     -117881.92      2331409        1554.0807      25622.413      2.725758       8103.62        112.36206      2.8071624      60.662637    
        20   1664.4668     -122377.06     -116666.42      129227.33      1117.4254      6291.1885      2.6960103      8193.0349      124.85338      2.8691932      64.806227    
        40   1278.8227     -121141.87     -116754.34     -84811.437      164.79043      3065.9877      2.6479415      8341.7654      125.91997      2.8493802      60.923689    
        60   1623.7285     -122694.54     -117123.67      124031.55      208.39571      2794.1687      2.6057607      8476.7979      112.09557      3.6769809      53.238742    
        80   1579.1396     -123096.24     -117678.35     -198321.96      366.36457      5024.3253      2.5510003      8658.7629      114.27759      4.5282745      48.140594    
       100   870.54081     -120959.01     -117972.27     -128496.08      395.97415      5350.3051      2.5040366      8821.1599      108.16173      4.1228771      53.434323    
       120   1699.8241     -123993.72     -118161.77      178927.25      344.32886      3880.146       2.4694991      8944.5292      102.67343      4.5985023      57.832092    
       140   1061.8974     -122147.89     -118504.61     -35570.945      774.62661      4494.5036      2.4311893      9085.4737      105.845        4.4804453      53.847737    
       160   1593.5846     -124067.44     -118599.99      46668.906      791.36878      5328.1666      2.4011507      9199.1338      114.87202      4.3705419      48.906543    
       180   1115.8939     -122652.12     -118823.58      129068.46      1118.8837      7021.9887      2.3745658      9302.1244      99.696846      4.5155191      53.905189    
       200   1582.1855     -124448.35     -119020.01     -103288.78      376.26753      3474.6028      2.3413829      9433.9576      100.86607      4.6366964      59.009889    
       220   1211.7539     -123249.66     -119092.24     -66036.679      440.67744      3618.8867      2.3167682      9534.1895      113.38459      2.41032        53.77544     
       240   1539.2778     -124442.28     -119161.15      43107.235      523.00486      4032.2862      2.3012023      9598.6809      107.29149      3.054674       52.133237    
       260   1418.8716     -124184.8      -119316.78     -28919.786      1277.6037      4458.3991      2.2839441      9671.2115      99.681846      2.8359534      51.025183    
       280   1358.8265     -124033.93     -119371.91     -94020.508      401.04359      3623.8358      2.2697394      9731.737       105.60057      3.0039488      60.026053    
       300   1393.6199     -124223.23     -119441.84     -25722.93       833.25551      3634.3065      2.2649582      9752.2799      107.29905      2.4082554      52.710929    
       320   1173.2222     -123486.22     -119460.99      82847.445      1154.4617      5126.4173      2.2640724      9756.0956      101.55657      3.6980802      63.908142    
       340   1482.6021     -124509.01     -119422.33     -11886.803      508.50913      3764.9751      2.2602519      9772.5865      107.15346      3.062641       43.551169    
       360   1200.5228     -123573.03     -119454.14     -7051.1801      881.70971      4708.1526      2.2580027      9782.3206      110.77086      1.1082882      59.15896     
       380   1313.7301     -123989.67     -119482.38     -24034.417      625.51501      3949.4195      2.2577451      9783.4371      105.77644      3.1352967      49.3538      
       400   1330.035      -124094.63     -119531.39      10640.482      1178.7645      4548.6409      2.2599174      9774.033       104.7355       3.5694218      64.224302    
       420   1326.4162     -124141.29     -119590.47      12478.304      547.99498      3883.2051      2.2640426      9756.2242      109.24742      3.6608381      50.243217    
       440   1459.7117     -124662.73     -119654.58     -4185.494       996.39036      4020.5538      2.2669903      9743.5382      107.05296      1.6563433      64.884315    
       460   1188.5981     -123819        -119741.03     -34145.975      607.49555      3894.5188      2.272227       9721.0828      100.61796      2.4432725      49.530033    
       480   1185.2545     -123874.36     -119807.85      1693.3707      532.61877      3937.8175      2.2821226      9678.9308      102.34347      2.7466685      62.536588    
       500   1190.9005     -123892.07     -119806.2       53382.644      1586.3302      4900.4959      2.2913558      9639.9288      104.87991      2.269536       42.432693    
       520   1249.062      -124004.16     -119718.74     -31676.813      705.90102      3641.9064      2.2946164      9626.2306      102.94079      3.7223067      65.62574     
       540   1370.2907     -124398.6      -119697.25     -19719.006      765.93025      3994.1957      2.2980494      9611.8503      102.93663      4.3562105      53.65552     
       560   1228.1042     -123869.41     -119655.89      13706.175      1128.6991      4665.2551      2.3030971      9590.784       104.11746      3.9707644      53.360245    
       580   1463.3287     -124645.09     -119624.53      2346.031       1553.3881      4714.894       2.3061027      9578.2842      104.73203      3.0294934      54.098662    
       600   1285.4321     -124061.58     -119651.38     -2735.9257      730.38929      4294.3416      2.3080991      9569.9992      107.09112      3.6474791      59.173213    
       620   1397.1015     -124470.23     -119676.89     -12616.009      949.9271       4096.0498      2.3102555      9561.0666      107.38765      5.0766092      48.960105    
       640   1300.8032     -124192.46     -119729.52      10218.664      918.87914      3866.4527      2.3119977      9553.8618      103.38725      4.7304062      61.99562     
       660   1207.1387     -123900.59     -119759        -10902.755      464.98863      3653.0857      2.3114754      9556.0205      103.19573      5.6604759      54.812225    
       680   1214.3245     -123918.85     -119752.61     -8183.8772      1321.0835      4491.2596      2.3111583      9557.332       107.22872      5.5639596      47.507729    
       700   1323.1289     -124277.01     -119737.47      37354.748      1264.0146      4513.8173      2.3117196      9555.0112      106.27426      5.3572357      52.185187    
       720   1352.659      -124368.02     -119727.16      33161.827      1733.8482      5650.3093      2.3080735      9570.1054      103.79856      4.1641982      57.377521    
       740   1255.2837     -124074.26     -119767.49     -66296.179      1100.6517      4179.892       2.3031204      9590.6868      108.4846       4.7979322      61.271202    
       760   1328.6977     -124342.03     -119783.39     -34051.937      1065.7624      4160.5842      2.303399       9589.5269      107.90213      5.9922423      62.555183    
       780   1315.5267     -124341.53     -119828.07      54574.234      638.61767      4192.7097      2.3045309      9584.817       105.05737      5.2281093      55.258419    
       800   1292.5068     -124312.34     -119877.86      17845.288      966.5649       4189.1483      2.3000666      9603.4205      105.21282      3.4436771      63.592237    
       820   1187.1216     -123976.75     -119903.84     -22886.997      607.24457      3987.2202      2.2950517      9624.4049      105.3188       3.2505354      54.53921     
       840   1222.9278     -124109.23     -119913.47     -17674.604      397.38859      3624.2449      2.2935155      9630.8513      102.92653      3.5331736      55.388506    
       860   1306.8074     -124375.21     -119891.67      3046.0062      446.9803       3741.4868      2.291977       9637.3162      104.82728      3.7809482      58.124638    
       880   1255.4701     -124170.39     -119862.98      20099.67       1589.7444      5177.9999      2.2877843      9654.9777      106.52977      3.5747239      59.974058    
       900   1308.4102     -124345.22     -119856.18     -12388.82       1049.4503      4434.3006      2.2834589      9673.2666      104.98721      2.7090418      56.410123    
       920   1251.3163     -124122.61     -119829.46     -11404.5        806.82107      4316.0922      2.2823978      9677.7637      103.74321      0.82882973     60.217448    
       940   1298.4752     -124271.69     -119816.73     -3806.4902      849.63801      4407.4882      2.2831733      9674.4766      106.95848      1.1525874      45.686448    
       960   1308.6821     -124249.57     -119759.59      18643.458      626.44536      4121.4144      2.284158       9670.306       108.23608      3.3495795      60.463282    
       980   1302.2526     -124201.07     -119733.16     -7249.1364      841.25479      3738.097       2.2841999      9670.1285      105.01662      4.3044363      49.282762    
      1000   1209.3754     -123888.89     -119739.63     -4430.0612      710.23481      4164.2633      2.2835696      9672.7977      103.16039      3.1709997      58.78469     
      1020   1269.6288     -124094.24     -119738.25      465.73342      810.27064      3998.0255      2.2844153      9669.2167      104.1594       2.6405162      55.50216     
      1040   1297.7072     -124172.7      -119720.38     -222.11252      1092.5655      4100.308       2.286436       9660.6714      104.72955      3.9643439      60.823454    
      1060   1295.193      -124161.55     -119717.85      3288.2803      770.40351      3987.0031      2.2868361      9658.9812      105.18601      4.608371       45.149501    
      1080   1288.4028     -124129.99     -119709.59     -21893.802      732.02439      3953.4101      2.2864988      9660.406       104.45452      4.9097741      66.220003    
      1100   1262.0698     -124044.59     -119714.53      21273.949      1535.692       5046.6975      2.2887482      9650.9117      103.56327      5.16776        46.197359    
      1120   1315.2071     -124237.04     -119724.68     -1901.9379      1097.5081      4661.5385      2.2925789      9634.7858      104.75463      4.5200371      57.944185    
      1140   1294.908      -124198.34     -119755.63      14576.127      695.25141      4069.0284      2.2961024      9620.0007      106.44186      4.1915412      60.914633    
      1160   1297.594      -124209.55     -119757.62     -32216.886      405.0504       3713.8999      2.2983691      9610.5132      105.00344      4.5610036      54.993827    
      1180   1225.0089     -123996.42     -119793.53      8908.3908      717.81041      4053.1797      2.3002517      9602.6478      102.82018      5.1178114      49.887953    
      1200   1199.545      -123944.73     -119829.2       609.51132      591.23518      3950.371       2.302496       9593.2876      104.9999       4.3705758      58.790427    
      1220   1301.2013     -124298.47     -119834.16      2524.645       548.4056       3960.3703      2.3059733      9578.8218      106.39664      2.9784616      53.417161    
      1240   1329.5138     -124417.47     -119856.03      13228.449      1009.9727      4141.0762      2.3085169      9568.2672      107.0295       3.7817586      56.568334    
      1260   1295.1363     -124326.49     -119882.99     -9980.2549      577.87491      3960.0035      2.3090738      9565.9598      106.92643      2.6510295      56.245351    
      1280   1204.6005     -124058.39     -119925.51     -13098.374      480.53974      4088.9378      2.3107737      9558.9225      108.16708      2.9623467      54.723534    
      1300   1264.1143     -124294.83     -119957.76     -14958.725      612.83255      4011.5379      2.3139839      9545.6615      106.66588      2.8812344      50.100978    
      1320   1224.7151     -124170.52     -119968.63      27757.711      386.99769      3716.1155      2.3165321      9535.1613      107.73493      3.8377498      59.073241    
      1340   1278.6292     -124372.8      -119985.93      26237.962      1209.5564      4293.0148      2.3161075      9536.9092      106.80702      3.6926844      54.918126    
      1360   1191.3196     -124089.17     -120001.86     -12070.208      842.32761      4044.9605      2.3147679      9542.4283      105.74596      4.2393393      62.11946     
      1380   1263.0381     -124334.25     -120000.87     -16421.35       438.75435      3569.3565      2.3144422      9543.7713      105.55238      5.1191333      50.185618    
      1400   1267.0477     -124348.53     -120001.4      -887.39151      489.7325       3904.4733      2.3138563      9546.1876      106.75842      5.2086299      56.554543    
      1420   1260.328      -124337.37     -120013.3      -5457.6384      545.48527      3994.0257      2.3105035      9560.0403      105.69937      5.687595       54.932385    
      1440   1243.3109     -124278.19     -120012.5      -5689.416       597.96671      3890.8686      2.3065475      9576.4371      105.29038      5.8278684      58.211763    
      1460   1230.4536     -124220.68     -119999.1       8378.3641      706.26183      4164.9236      2.3042909      9585.8151      103.8043       5.0438222      57.637767    
      1480   1230.6371     -124213.79     -119991.58      22073.726      979.48944      4240.835       2.3024187      9593.61        104.47441      4.1566552      48.945722    
      1500   1223.8322     -124160.62     -119961.76      9821.8267      1388.741       4235.7591      2.2994675      9605.9228      104.97583      4.06116        53.579044    
      1520   1256.7426     -124235.07     -119923.3       2254.0241      550.52391      3842.404       2.2961548      9619.7811      103.17662      3.8135276      54.114975    
      1540   1254.0166     -124140.7      -119838.28      1118.9776      1295.3438      4338.7286      2.2925374      9634.9601      102.71441      3.6902095      58.702184    
      1560   1358.0256     -124385.25     -119725.98     -5459.9003      1011.1047      4320.8028      2.2897152      9646.8359      104.19054      2.6829689      55.840227    
      1580   1305.0582     -124081.98     -119604.44     -16412.407      1380.8688      4393.8132      2.2885875      9651.5895      106.57098      2.1314035      59.360229    
      1600   1363.7227     -124210.69     -119531.88      8999.7156      851.72087      4014.2356      2.286703       9659.5435      105.90972      2.2901067      52.1674      
      1620   1305.3856     -123999.23     -119520.57     -38157.492      588.7416       3961.9888      2.2839339      9671.2549      105.22131      3.0378047      59.565072    
      1640   1328.3053     -124072.33     -119515.03     -26004.162      394.81778      3743.0264      2.2826199      9676.822       105.94629      2.5668557      59.300274    
      1660   1318.2215     -124039.67     -119516.97      57201.12       1408.2274      5364.6091      2.2830491      9675.0031      106.3871       3.1747107      68.296832    
      1680   1290.9625     -123957.43     -119528.25      18903.665      1182.036       4469.9567      2.2831696      9674.4925      107.132        3.3408468      54.991102    
      1700   1364.7509     -124231.04     -119548.7       13660.614      1611.7968      4687.8196      2.2819708      9679.5748      106.44751      3.5465597      55.565254    
      1720   1284.1928     -123977.39     -119571.43     -29946.471      545.52695      3778.8475      2.2815749      9681.2543      106.18731      4.29395        54.185349    
      1740   1325.4048     -124142.13     -119594.78     -18758.582      576.58599      3894.9342      2.2836451      9672.4778      105.8938       4.8412816      64.054353    
      1760   1316.8719     -124131.67     -119613.6      -21595.913      414.79294      3656.515       2.286089       9662.1377      107.16036      4.5276992      47.813987    
      1780   1323.6755     -124205.47     -119664.05     -276.78766      1091.8625      4680.7016      2.2883729      9652.4945      106.77791      4.7554334      60.843826    
      1800   1214.5959     -123836.15     -119668.98      3633.5711      961.7284       4149.9446      2.2908715      9641.9669      104.95215      4.5271405      47.716811    
      1820   1283.461      -124096.24     -119692.8      -2124.6768      509.54532      3769.6307      2.2940794      9628.4841      104.47651      4.4397081      52.57489     
      1840   1298.2281     -124164.12     -119710.01      13160.933      786.83171      4086.8717      2.298042       9611.8812      106.00334      5.0390625      50.859023    
      1860   1345.4834     -124355.31     -119739.07      23700.701      603.07235      3770.5621      2.3012292      9598.5688      104.58265      4.523802       61.735355    
      1880   1284.8781     -124162.24     -119753.93      5204.9166      1103.3618      4199.5556      2.3021849      9594.5842      104.54364      3.2854313      59.482636    
      1900   1289.4712     -124205.37     -119781.31     -32382.622      408.5962       3723.5971      2.3029396      9591.4397      105.01722      2.909478       65.17266     
      1920   1262.8311     -124129.03     -119796.37     -19685.295      987.52716      3992.4165      2.3049378      9583.1251      105.32302      2.4129026      54.697454    
      1940   1237.3476     -124072.09     -119826.86     -28775.335      383.20129      3718.6804      2.3064526      9576.8312      104.90194      2.8983072      61.362463    
      1960   1267.633      -124218.46     -119869.32      1134.6019      379.67858      3798.7722      2.3057468      9579.7624      106.83657      3.5608955      58.448942    
      1980   1283.7476     -124304.35     -119899.93     -1067.7491      482.33866      3903.0726      2.3041243      9586.5085      105.2037       3.6475773      55.691132    
      2000   1273.5919     -124304.33     -119934.75     -823.58323      627.07817      3783.3872      2.3032001      9590.355       105.05078      3.994459       59.41257     
      2020   1296.9993     -124416.17     -119966.28      17707.588      795.71596      4088.6113      2.3022847      9594.1682      105.50382      3.9109589      54.931136    
      2040   1252.9481     -124309.82     -120011.07     -11730.236      675.47657      3729.0996      2.2993441      9606.4383      107.27999      5.9593019      52.153955    
      2060   1253.8258     -124340.11     -120038.34     -14069.319      844.60748      3781.9432      2.2965723      9618.0326      105.58083      6.7642352      49.25441     
      2080   1270.1244     -124414.6      -120056.91      7417.7917      745.23989      3936.3367      2.2949467      9624.8453      105.34684      6.773563       56.754938    
      2100   1269.9111     -124409.37     -120052.42     -13437.749      1032.0454      4012.7568      2.2934099      9631.295       106.33332      5.3307447      51.743353    
      2120   1246.1365     -124333.47     -120058.08     -2582.7431      903.53701      4160.5659      2.2932227      9632.0811      106.91169      6.2100375      55.565548    
      2140   1256.9935     -124367.51     -120054.88     -19251.227      775.61394      3954.3275      2.2935987      9630.5019      105.82118      5.8471296      50.415993    
      2160   1223.9247     -124268.83     -120069.65      1045.4676      1038.8411      4049.9192      2.293307       9631.7267      105.24553      6.2404475      57.030375    
      2180   1218.8607     -124264.68     -120082.88     -10251.603      596.77761      3620.6179      2.294613       9626.2451      106.24758      5.8817199      67.001994    
      2200   1210.4738     -124212.93     -120059.9       18917.621      955.81283      4159.492       2.2969632      9616.3957      105.36714      3.7430532      54.211777    
      2220   1244.3672     -124337.19     -120067.88      3399.869       1095.0535      4446.5052      2.2975586      9613.9036      106.37951      2.6047267      60.623785    
      2240   1240.5044     -124314.32     -120058.26     -20492.325      513.64175      3930.9784      2.2976276      9613.6148      105.43992      2.2692806      54.824015    
      2260   1204.2809     -124213.68     -120081.9      -7604.3755      610.95737      3826.321       2.2985451      9609.7773      105.41989      2.4019796      61.690047    
      2280   1213.2122     -124263.44     -120101.02      10700.019      507.04631      3861.4002      2.2999882      9603.7479      105.21494      1.2586385      53.590704    
      2300   1223.103      -124287.91     -120091.56     -4864.492       498.11647      4039.7444      2.3012433      9598.5102      106.40571      0.76233884     61.593554    
      2320   1220.0956     -124261.31     -120075.27      15716.205      959.58298      4263.5784      2.3021358      9594.7886      104.72348      1.1715755      51.039933    
      2340   1255.0785     -124387.31     -120081.24     -5858.1381      584.45818      3740.061       2.3029777      9591.2812      103.72685      0.44679367     54.36652     
      2360   1199.0087     -124207.91     -120094.21      7393.9415      434.88616      3782.4878      2.3039395      9587.2772      103.6857       1.6084027      54.244213    
      2380   1251.2303     -124424.58     -120131.71      31683.039      1143.7034      4464.9253      2.305015       9582.804       105.06725      2.5285882      46.979647    
      2400   1231.7538     -124412.28     -120186.24      20265.445      639.00204      4170.9606      2.3046298      9584.4057      104.26781      2.0342866      51.909241    
      2420   1219.6299     -124399.35     -120214.91     -26114.671      382.74271      3544.3649      2.3024728      9593.3847      104.62149      1.9331402      59.627663    
      2440   1224.5834     -124458.45     -120257.01     -16549.556      1069.1756      4015.5355      2.3019008      9595.7682      105.41534      2.9172716      58.379067    
      2460   1208.2127     -124408.2      -120262.93      30650.828      2117.8136      5165.5989      2.3021715      9594.6399      105.88261      4.0484067      67.41731     
      2480   1233.5201     -124447.35     -120215.25     -7460.4008      461.30553      3723.359       2.3007864      9600.4161      105.88328      4.7513882      48.151576    
      2500   1193.7182     -124315.88     -120220.33     -8926.2218      901.85646      3953.5229      2.2989723      9607.9916      105.71794      4.9095605      59.726462    
      2520   1228.5646     -124426.77     -120211.68     -3618.967       712.74833      3894.199       2.2987194      9609.0487      105.43096      4.3086871      46.20467     
      2540   1233.1022     -124429.24     -120198.58     -2021.874       1759.3647      4396.1583      2.2985579      9609.7241      104.87284      3.58637        62.349571    
      2560   1187.2703     -124268.83     -120195.41      21493.003      792.38695      4313.0798      2.2980747      9611.7447      107.25173      4.7878086      60.158533    
      2580   1240.5999     -124446.87     -120190.48     -15752.906      664.85572      3803.203       2.2981979      9611.2293      105.63793      4.6906831      60.376407    
      2600   1196.77       -124293.09     -120187.08     -6698.762       677.98713      3818.8749      2.2986004      9609.5463      106.26129      5.1668246      50.484874    
      2620   1227.8261     -124385.42     -120172.86     -15835.445      986.77965      3890.3695      2.298713       9609.0754      106.43254      3.7511408      52.2232      
      2640   1201.743      -124291.78     -120168.7      -35928.083      324.43948      3527.7178      2.299456       9605.9705      107.79387      3.1850847      51.045067    
      2660   1264.7776     -124479.46     -120140.12      21139.212      1052.0303      4007.0048      2.3004366      9601.8757      105.58429      3.4275748      58.634122    
      2680   1259.8721     -124401.64     -120079.13     -9728.2298      427.76932      3576.4223      2.2997232      9604.8546      104.9088       4.6125241      61.367214    
      2700   1214.6687     -124189.22     -120021.8      -25211.624      735.27411      3776.7119      2.2992479      9606.84        104.49689      5.3248303      57.850709    
      2720   1229.2715     -124176.91     -119959.39      26375.705      970.10132      4112.093       2.300315       9602.3836      104.31411      3.6573273      59.152365    
      2740   1263.47       -124217.1      -119882.24     -353.78895      403.92679      3706.4182      2.3007513      9600.5628      103.86819      3.8004633      57.405558    
      2760   1241.0383     -124077.73     -119819.83      18054.466      602.12452      3992.3321      2.2996253      9605.2636      104.63855      3.1170151      57.114401    
      2780   1265.5883     -124090.96     -119748.84     -27514.051      402.59282      3779.0805      2.2980907      9611.6774      104.44396      4.7556469      63.820989    
      2800   1300.115      -124144.21     -119683.62      7000.8313      730.06475      4165.2397      2.2967996      9617.0806      103.92549      3.6731056      57.961071    
      2820   1318.2508     -124194.11     -119671.31      7546.2708      1052.7461      4263.5285      2.2946413      9626.1264      105.77515      4.0498686      56.301758    
      2840   1320.4338     -124230.1      -119699.81     -14173.459      779.54854      3991.9219      2.2922236      9636.2794      106.25873      2.5637919      56.183503    
      2860   1273.2366     -124103.98     -119735.62     -6752.8031      781.58801      4049.7735      2.2901574      9644.9732      104.84912      0.88630462     56.646825    
      2880   1296.9005     -124222.32     -119772.77     -16630.81       480.7681       3678.5503      2.2875265      9656.0659      104.89022      2.1881746      58.985469    
      2900   1225.7644     -124016.16     -119810.67      9541.6557      982.86671      4765.5085      2.2854506      9664.8369      106.93268      2.2471008      57.232132    
      2920   1296.8259     -124298.55     -119849.25      21450.177      852.86163      4122.3499      2.2845027      9668.8468      106.69951      1.8252666      56.345459    
      2940   1254.2801     -124180.03     -119876.71     -3523.5984      602.46528      3898.313       2.2831456      9674.594       105.32669      0.19456787     55.727532    
      2960   1269.1211     -124256.92     -119902.68      3949.3785      1118.5842      4089.8082      2.2817368      9680.5673      107.34904      1.5833633      53.769943    
      2980   1236.7811     -124182.3      -119939.01      31573.739      895.70649      4520.5839      2.282702       9676.4742      106.85285      2.4161279      57.480334    
      3000   1281.2678     -124346.47     -119950.56      23616.525      1186.8244      4595.1541      2.2835297      9672.9666      106.378        3.1042805      53.954182    
      3020   1224.721      -124166.75     -119964.84     -41165.273      1030.1902      4011.2583      2.28322        9674.2786      106.27181      3.4758543      53.830147    
      3040   1263.6014     -124335.51     -120000.2       20403.66       1090.0909      4340.5578      2.2848523      9667.3676      105.79999      3.9841171      52.288017    
      3060   1287.3494     -124454.24     -120037.46     -3992.1173      617.75326      3864.6409      2.2863595      9660.9948      105.05175      5.1498871      49.714373    
      3080   1206.4116     -124184.12     -120045.02     -10767.276      455.08666      3622.1382      2.2876154      9655.6908      105.50376      4.8210451      52.794337    
      3100   1234.896      -124302.56     -120065.74      6751.3205      439.24378      3731.3095      2.2904135      9643.895       106.05777      6.4204227      46.82189     
      3120   1179.2101     -124126.84     -120081.07      19048.378      1349.1549      4484.0906      2.2928583      9633.6117      104.02932      6.0564933      52.801673    
      3140   1220.7325     -124274.75     -120086.52     -17181.281      847.0656       3994.7944      2.2943798      9627.2233      105.19946      6.7956158      44.221998    
      3160   1243.9269     -124369.66     -120101.85     -2971.7111      469.32027      3811.7379      2.2969664      9616.3822      105.83536      4.3399697      46.79695     
      3180   1261.2561     -124465.3      -120138.04     -20750.387      636.56986      3704.5329      2.3001486      9603.078       105.29777      4.8906309      51.27414     
      3200   1224.4777     -124351.59     -120150.51      2858.6148      549.25245      3646.0242      2.3017703      9596.3124      105.12735      4.7798065      53.550524    
      3220   1234.1213     -124411.62     -120177.46     -28671.158      499.09299      3472.3255      2.3023599      9593.855       106.32114      5.5542854      50.148974    
      3240   1227.2601     -124407.89     -120197.26     -2940.2358      392.44802      3604.0909      2.3041143      9586.55        104.77334      4.2205714      56.989851    
      3260   1224.3168     -124413.54     -120213.01     -16085.553      385.8247       3644.4021      2.3052101      9581.9929      105.56249      3.1367722      58.044644    
      3280   1238.3054     -124488.35     -120239.83     -23091.45       499.32743      3674.4299      2.3050752      9582.5536      106.0897       1.3419667      58.545437    
      3300   1196.5573     -124353.93     -120248.65     -30064.752      652.81264      3853.9103      2.3054381      9581.0451      106.61571      2.4165303      52.801583    
      3320   1179.6253     -124326.84     -120279.65      10781.831      1027.962       4078.7268      2.3063028      9577.453       104.72726      3.1403887      64.372744    
      3340   1204.1571     -124411.83     -120280.47     -2642.385       614.03455      3991.6012      2.3061837      9577.9476      105.96375      3.7053212      57.257657    
      3360   1215.3433     -124459.01     -120289.27     -16284.626      470.91594      3612.6232      2.306003       9578.6983      106.36854      3.0704169      61.30311     
      3380   1184.9582     -124377.79     -120312.31     -1466.9703      742.02222      3844.1438      2.3060444      9578.5262      104.68305      1.5526719      55.3699      
      3400   1236.1546     -124565.96     -120324.82     -6691.4597      585.05449      3432.2221      2.3049027      9583.2707      105.4583       2.7847549      66.286228    
      3420   1171.0287     -124347.23     -120329.54     -31236.67       519.99143      3551.11        2.3033354      9589.7919      106.35395      3.6144491      50.571033    
      3440   1222.9908     -124528.86     -120332.88     -2248.8148      819.9318       3852.3167      2.3027623      9592.1785      106.33357      4.7467688      64.674456    
      3460   1204.5897     -124471.93     -120339.08      13172.051      923.20087      3848.6672      2.302129       9594.8172      105.48997      4.1063962      53.011395    
      3480   1203.6589     -124462.42     -120332.77      12115.098      1001.6265      4381.4271      2.300442       9601.8536      106.58065      4.5341524      66.074803    
      3500   1200.477      -124452.14     -120333.4      -28430.15       384.50142      3420.3469      2.2997271      9604.8383      106.87932      3.8652699      51.080573    
      3520   1184.5871     -124382.21     -120318         7822.0105      420.01429      3609.9587      2.3003316      9602.3141      105.63409      5.4891865      57.727145    
      3540   1216.686      -124466.62     -120292.28     -12937.098      388.75304      3576.5821      2.2999543      9603.8893      105.81073      5.2623842      51.857541    
      3560   1174.1931     -124321.52     -120292.97     -2722.9762      913.13785      3983.1053      2.2991135      9607.4015      106.6826       5.3251018      62.548467    
      3580   1211.4443     -124424.51     -120268.15     -21042.673      525.71767      3742.2513      2.2990382      9607.7162      105.28597      3.6201164      51.150308    
      3600   1186.2952     -124312.49     -120242.42      10632.629      1154.6572      4226.2251      2.2992034      9607.0258      104.84883      4.1332949      48.311028    
      3620   1271.0519     -124551.99     -120191.12     -11066.981      442.43278      3497.0392      2.2980713      9611.7589      105.92861      5.7489583      51.728903    
      3640   1226.7885     -124372.09     -120163.09      3622.046       872.29544      4046.2153      2.2972143      9615.3446      104.99174      6.0433872      50.051456    
      3660   1265.8528     -124460.23     -120117.2       8514.2535      1263.1052      4173.6311      2.2965259      9618.2268      104.49866      5.3319796      56.44148     
      3680   1240.2448     -124337.87     -120082.7      -10353.046      484.77072      3779.3614      2.2948312      9625.3295      105.07531      4.4531263      52.108028    
      3700   1237.7364     -124303.68     -120057.12     -18594.854      425.38643      3504.2908      2.293466       9631.059       105.38235      4.2396105      47.634912    
      3720   1244.7884     -124349.3      -120078.54      2948.5979      1231.9025      4432.7523      2.2930903      9632.6371      104.86717      4.6729507      47.825693    
      3740   1220.9537     -124286.05     -120097.06     -334.77634      743.91356      4159.3022      2.2920644      9636.9487      104.68132      4.5732043      53.991488    
      3760   1207.4365     -124271.69     -120129.08     -35179.827      521.66257      3792.495       2.2909136      9641.7895      105.11617      4.5416838      51.498934    
      3780   1180.4483     -124215.66     -120165.65     -15259.183      411.75602      3741.5225      2.2909541      9641.6191      105.70672      3.3085873      57.849969    
      3800   1200.0961     -124314.68     -120197.25      13331.582      1549.398       4726.0748      2.2911489      9640.7994      105.24975      1.7723202      52.352653    
      3820   1213.765      -124406.67     -120242.35     -5152.4351      740.50939      3754.9769      2.2903092      9644.3338      105.42572      1.2937544      52.704693    
      3840   1199.5339     -124404.2      -120288.71     -2182.7481      521.80074      3812.1045      2.2902234      9644.6953      105.48155      3.1326778      52.131294    
      3860   1207.0405     -124455.62     -120314.37      14801.655      794.54619      3901.675       2.2907679      9642.4026      105.23127      3.0363501      60.1108      
      3880   1226.6688     -124556.68     -120348.09     -2231.7917      1187.0226      4244.4626      2.2907076      9642.6567      105.3439       2.9595046      57.340609    
      3900   1148.9051     -124318.27     -120376.47     -4511.7835      330.05836      3572.0665      2.2908808      9641.9274      105.51167      1.7707849      65.789385    
      3920   1161.7615     -124386.61     -120400.71      6179.2637      896.9883       4111.7479      2.2916469      9638.7043      104.81398      1.3152382      57.52729     
      3940   1200.4852     -124522.46     -120403.7      -6816.4743      477.81875      3729.173       2.2920285      9637.0995      105.21073      1.7711982      62.587653    
      3960   1204.7255     -124560.33     -120427.03     -5232.8934      621.34849      3849.667       2.2927439      9634.0927      105.07005      2.4285712      57.053199    
      3980   1202.1864     -124548.41     -120423.81      2841.5362      494.68058      3658.8591      2.2942847      9627.6224      104.92221      1.7616835      53.237277    
      4000   1184.5094     -124492.76     -120428.81      10702.07       870.12041      4136.115       2.2951641      9623.9335      104.64286      0.51273838     62.374051    
      4020   1196.0593     -124511.64     -120408.07     -22850.135      665.00118      3807.5697      2.295331       9623.2337      105.49768      0.63130641     57.040592    
      4040   1197.8895     -124506.24     -120396.39     -20874.15       377.16713      3539.6306      2.2965916      9617.9514      105.70126      3.2926595      55.582957    
      4060   1204.9334     -124507.81     -120373.79      7721.2643      823.85308      3722.292       2.2978152      9612.8301      104.90475      3.2618336      48.312894    
      4080   1207.2209     -124497.29     -120355.42     -3605.0223      441.61726      3788.3718      2.2981692      9611.3491      105.87847      3.8448795      48.460868    
      4100   1194.3141     -124450.44     -120352.85     -13692.384      377.01139      3530.3452      2.2988095      9608.6721      105.32127      3.2424936      49.410826    
      4120   1200.4468     -124449.23     -120330.6       2339.576       584.81995      3758.8367      2.3003919      9602.0627      105.37023      3.9228914      55.302639    
      4140   1209.4848     -124467.18     -120317.55      17737.433      899.91519      3973.5087      2.3013136      9598.217       105.74348      4.2052771      54.175134    
      4160   1199.1343     -124392.88     -120278.75      15573.4        738.3743       3926.9725      2.3014441      9597.6725      105.98609      6.0769681      48.599959    
      4180   1239.1105     -124519.31     -120268.03     -15067.285      430.80023      3677.5247      2.3017249      9596.5017      105.51461      6.4246212      51.079737    
      4200   1192.8729     -124340.44     -120247.8       8179.5644      397.81246      3697.8822      2.3020716      9595.0566      105.98737      6.8038522      51.705681    
      4220   1216.0667     -124408.96     -120236.75     -3630.0537      915.54618      3971.0664      2.3013691      9597.9853      106.95416      6.1610589      58.171739    
      4240   1231.0539     -124433.46     -120209.82     -9102.5651      594.47715      3847.6445      2.3005287      9601.4916      105.90945      6.33318        61.653647    
      4260   1209.9446     -124369.09     -120217.88     -505.75225      539.29522      3768.5301      2.2995249      9605.6829      106.52423      6.5936463      57.379041    
      4280   1245.1485     -124504.35     -120232.36     -2300.0959      594.66839      3804.4564      2.2989543      9608.0669      105.94971      6.5777704      50.720325    
      4300   1238.3499     -124507.86     -120259.19      22397.533      877.94968      4012.7023      2.2994275      9606.0896      105.66148      6.2782516      54.485586    
      4320   1239.4323     -124547.62     -120295.24     -20326.966      466.40698      3601.397       2.2994903      9605.8274      105.34132      5.1674176      60.011542    
      4340   1194.4057     -124442.46     -120344.56     -5395.7244      912.70593      4132.4401      2.2991639      9607.1908      106.2247       4.9060261      57.658234    
      4360   1187.2214     -124452.98     -120379.72     -13877.849      581.07519      3757.9091      2.2996831      9605.0219      105.25699      4.053465       50.53916     
      4380   1178.2729     -124419.68     -120377.13     -20104.996      650.17225      3776.7489      2.3007839      9600.4264      105.29274      3.8805975      48.988403    
      4400   1194.5054     -124499.8      -120401.56      18010.107      1233.0413      4131.1313      2.3013444      9598.0884      105.12546      3.0730936      51.009565    
      4420   1182.6355     -124482.73     -120425.21     -5792.8712      712.19777      3756.4568      2.3014162      9597.7889      106.15111      3.2941067      55.004415    
      4440   1218.162      -124605.21     -120425.8       12443.331      657.62934      3795.6588      2.3025456      9593.081       105.40653      1.7380153      48.73503     
      4460   1142.1835     -124369.65     -120450.92     -5693.8568      604.79763      3826.4308      2.3040305      9586.8984      105.39599      2.0430712      57.029472    
      4480   1194.9926     -124568.56     -120468.65     -23423.488      318.70067      3452.0976      2.3043529      9585.5572      104.97326      1.5327179      53.142754    
      4500   1190.5189     -124549.97     -120465.41     -3641.7356      651.21481      3611.3031      2.3046325      9584.3945      106.34135      1.4295851      53.140376    
      4520   1186.316      -124541.54     -120471.39     -13849.034      706.23999      3697.8795      2.3054805      9580.8692      105.34095      1.9350531      50.092661    
      4540   1212.2197     -124639.34     -120480.32      9876.4722      523.39429      3743.0791      2.3055908      9580.4108      105.85395      1.6992811      59.931344    
      4560   1205.5088     -124621.84     -120485.84     -21030.328      1136.6455      3859.8091      2.3046007      9584.5268      105.73658      1.7923763      52.766312    
      4580   1231.3464     -124721.07     -120496.43      3329.5287      816.67988      4003.8701      2.3042777      9585.8703      106.41015      2.8643312      56.799876    
      4600   1177.5103     -124548.4      -120508.47      10568.619      710.31108      3866.9114      2.304229       9586.0729      105.18888      3.6230613      57.158155    
      4620   1228.6142     -124708.22     -120492.95      51448.075      1610.414       4882.6345      2.3035032      9589.0931      105.1762       3.0872776      53.403974    
      4640   1190.8177     -124568.55     -120482.96      24654.704      660.8754       3926.1665      2.3026567      9592.6184      105.62832      3.6020324      59.750825    
      4660   1176.6768     -124529.93     -120492.85      857.80651      1017.8933      4142.9233      2.3013657      9597.9994      104.9117       3.3141088      53.935661    
      4680   1181.0055     -124566.03     -120514.11     -13275.206      720.83395      3676.6918      2.3002884      9602.4943      104.98938      3.7277274      52.808972    
      4700   1169.3492     -124550.66     -120538.73      21104.254      428.30987      3785.4196      2.2999317      9603.9839      105.38471      4.4646739      49.723075    
      4720   1156.0297     -124536.49     -120570.26     -3799.5898      538.89747      3858.6536      2.2984564      9610.1481      105.24979      3.9852418      54.300557    
      4740   1122.069      -124485.51     -120635.79     -26842.967      1000.2868      3754.8448      2.2969319      9616.5267      105.4869       3.8705603      56.026896    
      4760   1174.5246     -124722.15     -120692.46     -3964.6138      348.58708      3363.4622      2.2966984      9617.5043      105.36308      3.2135761      56.815074    
      4780   1137.7905     -124645.97     -120742.31      14009.689      521.85137      3529.154       2.2962018      9619.5844      106.01414      3.8166458      48.414024    
      4800   1153.1909     -124733.06     -120776.56     -4196.13        546.40568      3597.897       2.2947587      9625.6336      105.98193      3.1580856      50.841575    
      4820   1175.4492     -124788.39     -120755.53     -42049.051      483.73896      3437.8491      2.2937987      9629.6621      106.1519       3.3561822      56.896924    
      4840   1136.8117     -124641.85     -120741.55      8843.6852      483.64548      3758.6856      2.2936559      9630.262       105.73746      3.2855199      53.741953    
      4860   1133.713      -124630.14     -120740.47      4440.7074      482.15714      3703.6641      2.2930224      9632.9225      105.86943      3.1611638      55.299001    
      4880   1152.9179     -124679.03     -120723.47     -16037.513      402.03905      3407.9678      2.2918075      9638.0288      106.51299      3.3662983      49.386704    
      4900   1133.9876     -124587.85     -120697.24      20960.657      787.14687      4035.7189      2.2915729      9639.0154      105.55561      3.1979475      55.138089    
      4920   1150.2635     -124608.09     -120661.64     -622.76328      805.3964       3853.5041      2.2918327      9637.9228      105.34718      3.9752642      55.28765     
      4940   1164.3425     -124622        -120627.25      6054.4366      740.30813      4060.4152      2.2918812      9637.7187      105.74019      3.4057754      51.382011    
      4960   1190.5659     -124679.81     -120595.08     -5698.2024      543.86836      3618.0901      2.2921872      9636.4322      105.40728      4.5416882      56.358176    
      4980   1156.6263     -124533.81     -120565.52      2173.5667      485.035        3540.892       2.2925533      9634.8933      104.56096      4.4944652      54.677515    
      5000   1165.6098     -124485.2      -120486.09     -9391.064       673.87215      3854.4115      2.292579       9634.7854      104.74487      4.5644042      49.239548    
      5020   1159.7586     -124425.63     -120446.6       28918.617      960.02263      4502.7538      2.2928985      9633.4427      104.68655      3.5542515      55.425128    
      5040   1150.0329     -124369.97     -120424.31     -16056.167      512.58285      3898.7955      2.2927562      9634.0406      104.67337      4.168824       58.353636    
      5060   1224.4677     -124615.26     -120414.22     -5421.3647      518.78208      3694.0915      2.2922983      9635.9651      104.84325      4.3509563      55.901163    
      5080   1164.0183     -124408.54     -120414.89      24048.328      812.21107      4211.6322      2.2924279      9635.4205      105.15305      4.8239405      53.494192    
      5100   1172.6653     -124434.6      -120411.29      12680.946      654.38412      3930.8302      2.2925492      9634.9105      104.76209      2.693485       47.372573    
      5120   1205.2211     -124560.16     -120425.15     -26132.752      496.57052      3487.3792      2.2924475      9635.338       105.3026       2.9206734      56.225302    
      5140   1190.3107     -124505.12     -120421.27     -9975.8594      970.37796      4001.9166      2.2929835      9633.0857      105.02766      2.9401453      55.720945    
      5160   1183.3534     -124483.87     -120423.88     -8862.8549      480.3949       3735.6459      2.2941064      9628.3709      105.93678      3.1526243      61.973605    
      5180   1164.3525     -124446.15     -120451.36      4653.6221      693.18715      4097.4257      2.295337       9623.2087      104.82029      3.1560847      54.127713    
      5200   1177.0764     -124507.46     -120469.01      5406.4084      1044.8851      3983.3119      2.2963641      9618.9045      105.2094       3.7082142      59.4565      
      5220   1182.9796     -124539.56     -120480.86     -887.52621      341.93938      3504.6473      2.2978371      9612.7383      105.70509      2.6885528      57.397623    
      5240   1192.3749     -124580.79     -120489.86      14636.253      779.27739      4009.8722      2.2992183      9606.9638      105.85463      3.0437584      59.86017     
      5260   1159.8577     -124474.73     -120495.35      3829.8922      631.867        3972.1095      2.300778       9600.4512      105.27281      3.2713722      64.548677    
      5280   1187.8864     -124587.61     -120512.08      5978.2482      456.73804      3681.696       2.3023407      9593.9348      105.10107      3.8245509      60.321366    
      5300   1191.1916     -124610.72     -120523.84     -13740.801      460.11844      3451.7061      2.3036844      9588.3391      105.28806      3.7484975      60.471995    
      5320   1176.7656     -124549.9      -120512.52     -11219.282      475.68313      3594.4288      2.3047088      9584.0772      104.56581      3.9589393      58.167491    
      5340   1176.6401     -124558.11     -120521.16      7707.2206      467.56291      3740.8239      2.3058894      9579.1699      104.94545      3.8873577      58.151015    
      5360   1184.7177     -124594.38     -120529.72     -14772.076      555.11721      3549.9301      2.306317       9577.3943      105.07722      3.5233215      52.643462    
      5380   1180.9777     -124567.16     -120515.32      1762.8971      1100.1778      3930.6447      2.3063156      9577.4001      105.28052      3.5150096      55.57984     
      5400   1172.2689     -124510.1      -120488.15     -6698.0996      1118.5153      4540.9628      2.3058368      9579.3885      106.04149      3.7670236      53.490184    
      5420   1200.3942     -124623.43     -120504.98     -9372.8251      433.91338      3463.1555      2.3052184      9581.9584      105.94294      2.905763       52.204136    
      5440   1180.1942     -124570.67     -120521.53      6641.2548      902.62753      3809.8692      2.3045372      9584.7906      105.67113      3.609255       55.173484    
      5460   1143.4148     -124471.56     -120548.61      5706.4608      524.07077      3730.9927      2.3034207      9589.4367      105.48279      2.7858794      49.24131     
      5480   1179.3861     -124591.34     -120544.97     -25712.081      376.25935      3374.7896      2.3025981      9592.8623      106.22485      3.3467116      51.925573    
      5500   1158.041      -124540.65     -120567.51      22925.734      640.4538       3711.7703      2.3021571      9594.7         105.6022       2.901319       60.203346    
      5520   1144.6907     -124518.39     -120591.06      13020.322      419.20716      3586.192       2.3008864      9599.999       105.36992      2.242013       49.498676    
      5540   1142.9837     -124527.77     -120606.29     -13480.171      520.92594      3513.325       2.2996872      9605.0049      105.90139      2.681585       55.40191     
      5560   1156.07       -124599.01     -120632.63      25383.628      908.16458      4184.2312      2.2992591      9606.7932      105.51107      2.7813699      42.669298    
      5580   1189.7343     -124669.86     -120587.99     -12098.736      1203.2764      4252.0361      2.297788       9612.9438      105.94922      3.6532482      55.303218    
      5600   1141.2403     -124513.3      -120597.8       10643.126      1251.054       4633.4903      2.2963953      9618.7737      105.21522      2.7671652      52.36145     
      5620   1169.4095     -124620.81     -120608.66      11470.431      1080.7925      3943.664       2.2955632      9622.2605      105.62968      2.6908818      49.475224    
      5640   1183.4381     -124685.26     -120624.99     -28653.203      556.74518      3497.7013      2.2939941      9628.842       104.2066       1.7098857      54.207781    
      5660   1152.4222     -124592.18     -120638.32      5574.4911      685.0505       3694.3875      2.2927194      9634.1953      105.32785      3.2859029      49.941329    
      5680   1154.1066     -124604.1      -120644.46      2263.5437      578.42334      3655.5874      2.2916835      9638.5505      104.86219      3.775081       52.954082    
      5700   1163.1625     -124628.55     -120637.84     -17440.008      1155.0815      4264.5879      2.2909176      9641.7725      104.58354      3.1873285      47.845112    
      5720   1177.2553     -124676.49     -120637.43      3214.3135      467.56684      3650.3136      2.2902422      9644.616       104.73506      2.8210472      55.271887    
      5740   1131.8972     -124512.68     -120629.24     -14431.638      616.64973      3784.7984      2.2895833      9647.3915      105.21306      3.40563        47.379966    
      5760   1164.5973     -124644.96     -120649.33     -19619.463      490.75315      3476.5904      2.2898971      9646.0695      105.05417      3.0083847      60.05809     
      5780   1191.2118     -124704.98     -120618.03      22509.834      1412.6638      4923.9572      2.2906308      9642.9799      104.73605      1.6700148      49.451977    
      5800   1118.9206     -124472.78     -120633.86     -629.19537      415.53639      3561.5545      2.2904905      9643.5704      104.87534      2.1296371      56.609426    
      5820   1126.4454     -124509.02     -120644.29     -15799.381      587.29613      3695.0863      2.2912587      9640.3372      104.89727      2.4983943      57.507983    
      5840   1121.5828     -124486.65     -120638.6       3767.8842      824.58574      4150.1848      2.292845       9633.6676      105.18991      2.3645119      55.145923    
      5860   1153.0365     -124597.79     -120641.82     -26944.896      477.85565      3652.6396      2.2930492      9632.8099      105.5549       2.5860908      58.990995    
      5880   1169.7616     -124662.31     -120648.96     -25260.789      397.76769      3411.4588      2.2935799      9630.5809      105.59289      3.0014784      61.856935    
      5900   1146.4003     -124580.85     -120647.65     -9329.5446      445.86592      3631.2041      2.2953156      9623.2982      106.30916      3.458118       61.253514    
      5920   1154.9305     -124610.01     -120647.54     -4092.539       836.48096      3600.5073      2.2970629      9615.9784      105.49937      3.911687       55.448778    
      5940   1115.306      -124491.61     -120665.1      -17137.111      517.98228      3634.016       2.2981576      9611.398       105.4108       3.8339684      62.652125    
      5960   1155.7754     -124650.7      -120685.33     -8754.7415      616.08398      3652.1546      2.2993586      9606.3775      106.57934      5.0061051      57.786423    
      5980   1127.0037     -124544.92     -120678.27     -12309.074      649.29351      3888.6828      2.3011687      9598.821       105.5241       5.1843134      55.201373    
      6000   1119.2779     -124544.41     -120704.26      27239.58       620.4898       4053.0225      2.3027392      9592.2747      105.41466      5.2483869      54.736679    
      6020   1146.0921     -124645.19     -120713.05      15914.114      468.36321      3571.8232      2.3037275      9588.1595      105.71896      4.8354048      59.878056    
      6040   1152.1804     -124719.82     -120766.79     -33182.235      524.89598      3427.0302      2.3036044      9588.6717      106.23831      6.3834671      56.47529     
      6060   1140.6332     -124714.81     -120801.4      -14896.77       761.02581      3718.9295      2.3040328      9586.889       105.61299      6.1296361      57.792747    
      6080   1107.33       -124640.24     -120841.09      11365.339      1090.9796      3970.2656      2.3046803      9584.1958      106.02694      5.7832901      53.444168    
      6100   1129.5313     -124756.51     -120881.19      6476.1819      612.93427      3572.1995      2.3043004      9585.7758      105.99405      6.2099372      59.651573    
      6120   1118.3551     -124758.37     -120921.39     -17418.278      475.55553      3388.9923      2.3036023      9588.6808      106.02201      6.2500777      52.959366    
      6140   1066.7287     -124609        -120949.15      10286.248      508.33449      3761.4969      2.3032618      9590.098       105.26871      4.8190112      54.953756    
      6160   1116.6398     -124768.36     -120937.27      12995.117      774.85825      3982.838       2.3021663      9594.6617      105.79766      4.3055463      49.719869    
      6180   1154.5813     -124903.66     -120942.39     -19600.339      325.47375      3249.9476      2.3005803      9601.2762      105.21805      4.6704036      53.432598    
      6200   1111.5806     -124747.4      -120933.67     -13442.418      461.17615      3283.7618      2.2986373      9609.3918      105.52947      4.7214384      54.17017     
      6220   1126.1334     -124785.75     -120922.09      10925.688      784.86737      3635.6143      2.2968451      9616.8903      105.20018      4.5267275      54.313881    
      6240   1154.3702     -124856.43     -120895.89     -11325.472      514.65973      3470.3844      2.2953575      9623.1226      105.62574      3.9182443      54.395372    
      6260   1113.2399     -124681.8      -120862.37      34634.957      1310.4722      4417.946       2.2945112      9626.672       104.98679      3.8361247      46.433552    
      6280   1120.1632     -124681.51     -120838.33     -14042.972      675.86551      3601.3362      2.2934602      9631.0836      105.83055      4.3106253      50.837127    
      6300   1140.0511     -124724.37     -120812.96     -7673.5015      525.75628      3408.1967      2.2930398      9632.8492      104.68733      3.0111675      49.010346    
      6320   1119.2787     -124604.44     -120764.29     -3054.6476      336.09904      3466.2165      2.2934347      9631.1904      106.09148      2.9610389      57.908013    
      6340   1167.226      -124728.11     -120723.46      26451.719      894.99762      4275.725       2.2940865      9628.4541      105.47254      2.6038368      54.608595    
      6360   1170.3607     -124681.28     -120665.87     -687.78834      320.96974      3473.6529      2.2950951      9624.2228      104.51238      3.6942783      53.349794    
      6380   1150.1417     -124603.53     -120657.49      22927.498      871.71838      3750.3112      2.2961174      9619.9379      105.11045      3.0049747      49.769033    
      6400   1159.6936     -124625.51     -120646.7       13001.407      1082.945       4002.7774      2.2967795      9617.1649      105.82813      2.7868405      51.545005    
      6420   1164.5746     -124606.75     -120611.19      12705.209      658.69015      3723.7919      2.2979958      9612.0746      104.30913      2.3456713      56.809868    
      6440   1173.5356     -124639.2      -120612.91     -893.52493      532.71492      3493.4212      2.2994141      9606.1457      104.2769       2.2397482      52.320703    
      6460   1186.0549     -124687.02     -120617.77      7418.0085      885.40288      3812.8735      2.3004792      9601.698       105.22783      4.1352554      49.475679    
      6480   1193.5936     -124727.62     -120632.5       4927.2413      637.54673      3522.185       2.3010377      9599.3675      104.71552      5.0297829      51.130523    
      6500   1188.3163     -124736.9      -120659.89      15654.484      970.41028      3898.4909      2.3017626      9596.3444      103.78469      3.424569       49.379913    
      6520   1171.7998     -124698.89     -120678.55      14501.558      755.96321      3903.9219      2.3016542      9596.7963      104.85876      2.5752336      54.573435    
      6540   1149.4745     -124657.35     -120713.61      353.45571      498.18346      3371.1853      2.301551       9597.2267      104.26114      3.900285       49.226629    
      6560   1135.5248     -124621.94     -120726.05      46223.67       638.96265      4121.9576      2.301621       9596.9351      104.33186      5.3871694      48.558036    
      6580   1121.9153     -124577.29     -120728.1       6149.5165      464.009        3668.1103      2.300143       9603.1014      105.13356      5.3115601      48.027359    
      6600   1119.3679     -124582.74     -120742.29     -4268.4925      814.22231      3923.1031      2.2987861      9608.7699      105.1498       4.570164       53.655575    
      6620   1129.1125     -124624.29     -120750.4      -18408.995      482.89502      3478.779       2.2983036      9610.787       104.70553      3.5045122      56.102458    
      6640   1144.2753     -124630.21     -120704.3      -12120.103      671.67144      3748.9304      2.2972769      9615.0825      106.18313      4.1338878      54.225016    
      6660   1132.6065     -124576.19     -120690.32      9140.7268      615.70956      3717.2686      2.2960739      9620.1202      106.13495      4.6424817      50.976923    
      6680   1134.9474     -124596.16     -120702.25     -16529.627      875.62825      3876.1392      2.295008       9624.588       105.23022      5.765526       54.548138    
      6700   1176.153      -124722.33     -120687.05     -7497.5463      994.74145      4056.6211      2.2945632      9626.4538      105.7918       4.3501521      54.621353    
      6720   1128.0129     -124554.06     -120683.94      21848.355      951.88771      4032.4942      2.2939427      9629.0579      106.88638      3.1887896      56.320331    
      6740   1106.2249     -124496.76     -120701.4      -3260.0875      939.77484      3920.4054      2.2931294      9632.4728      105.60682      2.8563583      54.438518    
      6760   1102.949      -124517.12     -120732.99     -14173.736      405.12346      3506.7877      2.2925785      9634.7877      105.84225      4.2121274      50.891439    
      6780   1097.517      -124527.17     -120761.69      9855.8343      1109.4122      4222.3823      2.292311       9635.9118      105.17297      4.0565099      51.72111     
      6800   1139.1393     -124696.5      -120788.21      46809.566      940.92685      4498.4487      2.2924545      9635.3089      106.05154      3.6863713      52.069708    
      6820   1129.276      -124680.48     -120806.03      274.02169      396.97156      3544.0103      2.2923349      9635.8114      104.77055      2.958309       55.224527    
      6840   1131.6558     -124700.39     -120817.78     -21107.38       912.7329       3747.825       2.2918212      9637.9714      105.58388      2.3346893      55.16336     
      6860   1082.8264     -124550.63     -120835.55     -23367.297      457.02251      3455.2744      2.2922921      9635.9913      104.81888      2.4215183      58.820703    
      6880   1095.9576     -124611.08     -120850.95      13161.174      788.0619       3694.8176      2.293282       9631.8319      104.28158      2.7785931      55.266396    
      6900   1127.614      -124716.08     -120847.33     -6033.8038      639.95968      3643.9901      2.2935128      9630.8627      105.11032      3.8612901      56.001579    
      6920   1080.1287     -124547.69     -120841.87     -15746.579      1260.5865      4071.1391      2.2938909      9629.2753      105.28758      2.5289689      56.129386    
      6940   1114.2312     -124661.04     -120838.21      5995.3045      465.13033      3588.0462      2.2947977      9625.47        104.11774      1.79272        62.523045    
      6960   1102.0998     -124623.6      -120842.4      -9413.2728      367.24293      3424.0619      2.2950821      9624.2774      105.13802      2.8215999      63.231755    
      6980   1106.9955     -124643.27     -120845.26      4085.3503      1496.296       4587.2403      2.2959837      9620.4981      105.07159      3.984772       67.071944    
      7000   1175.01       -124823.5      -120792.14      26773.358      1004.1013      4227.7754      2.2971731      9615.5168      105.15363      4.1991225      58.125742    
      7020   1118.2294     -124642.21     -120805.66     -8602.6448      342.9624       3371.7892      2.2975931      9613.7591      104.79919      4.0890677      63.548642    
      7040   1136.6135     -124706.92     -120807.3       13677.342      518.20794      3676.5321      2.2978084      9612.8582      105.61797      4.2896753      60.264502    
      7060   1150.9121     -124769.88     -120821.2       8020.8924      1706.169       4472.3905      2.2986533      9609.3249      104.93397      4.4865318      62.015192    
      7080   1113.6571     -124684.55     -120863.69     -2650.0595      581.71427      3708.9548      2.2991998      9607.0408      105.29037      5.4604729      57.620513    
      7100   1153.127      -124862.81     -120906.53     -21431.35       334.56802      3269.8119      2.2991906      9607.0793      106.01744      5.9190937      61.156922    
      7120   1121.5148     -124769.18     -120921.36     -19495.4        696.5907       3515.1698      2.299502       9605.7785      105.70831      5.5367108      50.664241    
      7140   1092.8793     -124708.32     -120958.75     -8867.9135      467.00963      3571.0401      2.2997521      9604.7338      104.97171      4.0588069      58.119365    
      7160   1108.9573     -124797.82     -120993.08      34333.575      651.05242      3983.2907      2.3000353      9603.5512      105.78018      4.6583308      51.681771    
      7180   1087.8995     -124749.59     -121017.1      -17054.167      539.63867      3657.8013      2.2999653      9603.8436      105.90706      5.1674026      54.612817    
      7200   1092.7523     -124783.55     -121034.41      21928.806      802.1015       3866.9832      2.3001135      9603.2248      104.69086      4.4403074      50.27422     
      7220   1083.715      -124708.65     -120990.52     -6732.1807      1164.8088      3915.9285      2.2999824      9603.7719      105.45447      3.8396936      52.77448     
      7240   1098.4641     -124762.35     -120993.62     -21383.794      435.91185      3438.8587      2.2996301      9605.2435      105.6445       1.8728055      50.359604    
      7260   1091.2687     -124708.85     -120964.81      7471.4271      1486.2177      4003.8713      2.2995836      9605.4378      105.18755      1.4516361      58.582058    
      7280   1097.5342     -124735.75     -120970.21      24406.02       511.75621      3742.0396      2.2994798      9605.8714      105.26147      1.384014       52.967527    
      7300   1130.9153     -124808.72     -120928.65     -15338.365      1035.6324      4128.8571      2.2983011      9610.7976      106.06389      2.0058809      54.64081     
      7320   1095.4812     -124667.37     -120908.87     -12518.617      523.80376      3536.617       2.297368       9614.7012      105.12593      0.67829963     41.163507    
      7340   1132.6766     -124784.67     -120898.56      1655.4528      558.15713      3525.1661      2.2967347      9617.3521      105.42528      1.3623333      56.269424    
      7360   1107.6384     -124678.25     -120878.04     -1301.054       1109.7072      3785.1133      2.2955314      9622.3937      106.09859      1.8219292      48.466157    
      7380   1169.8175     -124849.65     -120836.11      7609.4978      606.94089      3523.9016      2.294421       9627.0505      105.65611      1.9547092      63.316555    
      7400   1133.0505     -124744.72     -120857.32     -11034.851      358.40818      3261.4948      2.2935327      9630.7792      105.30134      2.865988       45.539403    
      7420   1122.3973     -124706.32     -120855.48      19613.417      1015.6334      4098.8061      2.2927163      9634.2084      105.77357      3.7422077      49.983957    
      7440   1120.2667     -124700.14     -120856.6       6335.1563      657.85673      3608.362       2.2921136      9636.7417      105.33382      3.2612791      41.532996    
      7460   1097.8388     -124621.7      -120855.12      26583.035      1104.8251      4065.5662      2.2921736      9636.4895      105.12178      3.8142125      56.000051    
      7480   1107.2182     -124665.26     -120866.49      5287.6622      507.87237      3677.8488      2.2916204      9638.8159      104.87124      4.7120209      52.116527    
      7500   1165.9484     -124897.45     -120897.18     -14093.635      480.86663      3313.0658      2.2912269      9640.4713      105.19128      5.698133       50.758904    
      7520   1127.8977     -124791.89     -120922.17     -9112.9044      655.44903      3611.1166      2.2922895      9636.0023      104.71259      5.3258793      50.166852    
      7540   1125.8849     -124820.14     -120957.32     -5689.1802      660.64565      3499.9131      2.2928096      9633.8165      104.88538      6.1960189      50.218568    
      7560   1109.3975     -124772.77     -120966.53      4352.2716      914.0389       3923.9489      2.2928438      9633.6728      105.27016      5.7419451      53.664191    
      7580   1075.8614     -124675.99     -120984.8       7066.2879      646.89444      3882.0207      2.2940878      9628.4487      104.39372      4.700877       58.50429     
      7600   1129.4156     -124905.74     -121030.82     -3733.5795      575.00794      3403.3257      2.2956602      9621.8539      104.88975      5.3277462      57.531654    
      7620   1129.8342     -124924.52     -121048.16      18143.709      456.02949      3529.9032      2.2968831      9616.7308      105.23299      5.8141965      56.348827    
      7640   1077.67       -124773.57     -121076.18      9844.628       479.88597      3402.2908      2.2984319      9610.2508      105.19893      4.9706666      58.178148    
      7660   1050.3423     -124700.31     -121096.68     -17335.083      346.18581      3212.1404      2.2998665      9604.256       104.43695      3.3902967      57.653735    
      7680   1083.3921     -124824.67     -121107.65     -7794.8122      459.56402      3313.812       2.3015916      9597.0573      105.22971      3.2926047      56.565382    
      7700   1094.2601     -124852.01     -121097.7       8068.0164      579.73046      3655.4285      2.3035318      9588.9743      105.01325      3.1939583      58.639415    
      7720   1087.7958     -124788.29     -121056.16     -22377.998      426.34034      3395.8158      2.304662       9584.2717      105.78319      4.0103248      56.393301    
      7740   1144.127      -124972.54     -121047.14      5392.4035      433.46286      3264.4617      2.3057259      9579.8495      105.0552       3.1866429      63.52716     
      7760   1145.5114     -124859.24     -120929.09     -4430.6929      611.17729      3528.705       2.3061085      9578.2599      105.66061      2.5613246      56.821156    
      7780   1106.0504     -124731.68     -120936.92     -15369.996      447.67912      3300.1032      2.3061289      9578.1753      105.83299      2.3312501      62.452631    
      7800   1144.4746     -124857.78     -120931.19      8484.7508      478.73884      3499.7079      2.3062322      9577.7461      105.93538      3.4493195      52.000792    
      7820   1119.4233     -124764.31     -120923.67      39800.763      917.73789      4179.603       2.3056239      9580.2733      105.32745      4.866457       61.125512    
      7840   1095.077      -124687.16     -120930.05     -14729.493      355.54713      3344.1267      2.3034449      9589.3357      104.89468      4.3442109      60.315413    
      7860   1108.1883     -124723.62     -120921.52     -13406.298      420.31448      3420.7364      2.3007122      9600.7259      104.91367      3.9913889      63.539289    
      7880   1126.8548     -124646.53     -120780.39      7113.2916      852.92787      3619.299       2.2973413      9614.813       104.68679      3.367872       60.124116    
      7900   1124.76       -124662.73     -120803.77      5524.9261      684.27309      3546.0034      2.293173       9632.2898      106.28267      4.6126535      58.235324    
      7920   1118.0487     -124676.9      -120840.97     -17020.11       624.46206      3462.5786      2.2886612      9651.2786      104.86834      5.7261609      62.154652    
      7940   1131.0691     -124781.34     -120900.74      28969.393      573.06047      3509.1008      2.284535       9668.7101      104.61096      6.8507749      63.661786    
      7960   1112.4597     -124769.17     -120952.42      6165.73        605.84168      3669.6018      2.2796688      9689.3492      104.29297      4.7019114      55.482299    
      7980   1075.5874     -124699.72     -121009.48     -12832.209      383.90303      3292.6743      2.2748138      9710.0285      105.29863      4.1559401      65.001996    
      8000   1085.3288     -124781.96     -121058.29     -1649.2581      493.10797      3319.8936      2.2707016      9727.6132      104.39304      5.3648665      49.724912    
      8020   1130.827      -124942.66     -121062.89      29321.993      752.60774      3758.6478      2.266067       9747.5082      104.49826      5.9101352      60.202595    
      8040   1090.1708     -124816.3      -121076.02     -20944.348      890.58979      3437.793       2.2614324      9767.4847      105.2959       5.9925647      54.247582    
      8060   1063.1323     -124728.99     -121081.48     -20170.751      359.57331      3315.2618      2.2587379      9779.1367      104.93815      5.3428653      60.683029    
      8080   1089.6471     -124801.61     -121063.13      20636.654      1502.947       4598.1865      2.256741       9787.7898      104.51885      4.2260744      45.878261    
      8100   1119.4071     -124909.34     -121068.76     -11072.48       440.36978      3264.6684      2.2546093      9797.044       105.08181      2.9799952      56.877005    
      8120   1088.0611     -124795.57     -121062.53     -24907.218      488.04987      3486.9297      2.254704       9796.6325      105.1029       5.779349       49.519991    
      8140   1098.2741     -124831.57     -121063.48      21058.826      1339.8281      4107.6038      2.2565687      9788.5374      103.26987      5.2516256      64.085986    
      8160   1100.2298     -124842.2      -121067.41     -9506.2245      397.03865      3303.9788      2.257764       9783.355       105.53987      4.4664506      54.347239    
      8180   1062.1526     -124713.31     -121069.16     -16842.133      439.26379      3380.0849      2.2596713      9775.0972      105.09422      2.8521937      53.614325    
      8200   1080.4019     -124786.47     -121079.7       5272.3368      640.42819      3608.0405      2.2633704      9759.1217      105.1849       1.8385421      50.045386    
      8220   1110.3002     -124848.41     -121039.07      28412.413      1896.0655      4966.237       2.2670283      9743.3749      104.19879      2.9245605      56.855536    
      8240   1073.4147     -124728.73     -121045.94     -18006.366      418.8711       3368.9501      2.2707149      9727.5562      105.73122      5.1085579      49.943742    
      8260   1092.9284     -124807.95     -121058.21      20847.339      694.80912      3639.163       2.2751937      9708.4071      104.63958      4.89052        58.82922     
      8280   1077.8651     -124775.8      -121077.74     -13132.867      797.15574      3573.6512      2.2792486      9691.1354      104.97876      3.1594949      53.774211    
      8300   1084.0488     -124795.95     -121076.68     -11409.9        484.50292      3430.2205      2.2827537      9676.2548      104.91895      1.8668124      57.942202    
      8320   1100.256      -124871.99     -121097.11      21751.687      1174.0841      3822.0907      2.2856518      9663.9861      105.60028      2.8882596      57.526643    
      8340   1119.8482     -124957.97     -121115.87      3774.0474      827.38555      3501.5484      2.2880786      9653.7361      104.77214      3.5994812      57.858837    
      8360   1102.4515     -124920.62     -121138.21      1812.1705      839.64544      3359.2049      2.2896546      9647.091       104.29512      3.8101133      53.313418    
      8380   1076.5231     -124862.78     -121169.33     -6805.7177      368.50647      3306.1031      2.2905391      9643.3661      104.71441      2.8225387      54.755991    
      8400   1111.5214     -125004.64     -121191.11      4700.2867      1028.2871      3696.6976      2.290589       9643.1557      104.71015      1.7728943      54.332869    
      8420   1034.1752     -124781.62     -121233.46      23033.939      1192.8137      4132.7633      2.2894421      9647.9864      104.82968      2.4347674      51.936669    
      8440   1078.822      -124937.96     -121236.62      2548.48        1019.8056      3614.7667      2.2870292      9658.1657      105.5469       3.368647       50.928659    
      8460   1081.883      -124952.22     -121240.37      13155.466      835.48906      3513.277       2.2844323      9669.1448      104.57751      4.0138282      56.011707    
      8480   1065.0388     -124910.41     -121256.35      26267.765      975.36052      3831.7038      2.2804904      9685.8584      104.89921      3.4533415      49.249742    
      8500   1051.949      -124883.03     -121273.88     -10903.323      1324.4301      3834.3147      2.2753248      9707.8476      105.13284      3.8664825      47.48766     
      8520   1080.0333     -124978.21     -121272.71     -14689.65       432.26598      3175.5328      2.2708326      9727.0521      104.82911      3.8550493      49.053534    
[...]
     37940   332.83425     -124776.23     -123634.31      465.9043       353.11745      1612.8338      0.6367035      34691.982      40.956286      24.700157     -7.267579     
     37960   409.66895     -125057.21     -123651.68      1859.8166      437.91823      1578.461       0.63683507     34684.815      44.388846      18.268342     -5.3907505    
     37980   367.38348     -124934.32     -123673.86      2816.5328      1037.3377      2287.078       0.63688974     34681.838      42.601652      18.667615     -4.4569589    
     38000   354.02637     -124746.77     -123532.14     -1578.4274      248.7518       1486.7484      0.63679303     34687.105      42.343273      17.148182     -3.9987498    
     38020   372.73665     -124825.52     -123546.69     -1275.8452      264.04507      1484.1126      0.63667543     34693.512      41.286074      15.944226     -7.3887313    
     38040   359.29648     -124798.39     -123565.68      2446.3502      290.87866      1542.369       0.63653309     34701.27       40.123739      18.687099     -8.860775     
     38060   347.62399     -124771.93     -123579.26      243.98772      244.57642      1442.44        0.63630711     34713.594      36.782448      20.921169     -7.4737064    
     38080   320.08094     -124685.65     -123587.48     -591.39393      243.24861      1460.6106      0.63603558     34728.414      37.82193       21.817982     -9.4649785    
     38100   375.81083     -124882.22     -123592.85      553.94775      233.71655      1434.6507      0.63589602     34736.036      42.475315      26.729846     -7.7132624    
     38120   391.18797     -124950.04     -123607.91      2953.0931      346.19949      1429.0886      0.63567004     34748.384      39.003465      21.10614      -13.990201    
     38140   333.0971      -124766.64     -123623.82     -2689.8848      434.4111       1610.4647      0.63524504     34771.632      44.783044      22.620679     -13.917611    
     38160   377.96196     -124927.64     -123630.89      1315.0953      302.12915      1378.9054      0.63490128     34790.459      39.181465      20.512526     -13.456665    
     38180   340.7626      -124818.33     -123649.2      -133.01839      234.67334      1389.2002      0.63450119     34812.396      44.009627      20.207243     -10.129045    
     38200   339.0342      -124823.99     -123660.79      869.1719       238.81823      1428.415       0.63408023     34835.508      37.964282      19.529814     -11.281652    
     38220   365.02218     -124913.58     -123661.22      3118.1529      557.3956       1679.8226      0.63369904     34856.463      42.03088       23.023776     -8.7254074    
     38240   373.67215     -124947.79     -123665.75     -926.86574      416.9258       1557.7785      0.6331751      34885.305      39.699877      24.025259     -8.435825     
     38260   354.91094     -124912.41     -123694.74     -598.49831      377.88362      1528.7512      0.63265296     34914.097      42.294576      21.170254     -9.304697     
     38280   359.04012     -124948.38     -123716.54      475.27341      435.30596      1572.729       0.6322582      34935.896      39.248547      19.435559     -5.2176547    
     38300   368.36333     -125003.1      -123739.28     -1125.8727      355.06131      1516.763       0.6318909      34956.203      35.29033       17.631395     -6.1751359    
     38320   374.06916     -125028.69     -123745.3       393.56937      691.25518      1820.5436      0.63152181     34976.633      33.890013      11.688286     -5.5084573    
     38340   382.96264     -125073.17     -123759.26     -941.09575      533.97115      1748.0801      0.63122338     34993.17       34.073179      17.490253     -0.71423799   
     38360   356.89242     -125008.39     -123783.93     -858.33548      422.67416      1614.2153      0.63087733     35012.364      35.78317       19.3231       -0.011709232  
     38380   335.14966     -124962.47     -123812.61     -2960.2479      393.84087      1608.4705      0.63061701     35026.817      33.044015      13.398423     -2.1053992    
     38400   353.80274     -125002.17     -123788.31      1475.1347      333.61681      1490.6379      0.63057361     35029.228      40.281715      13.998312     -0.87214579   
     38420   336.6517      -124916.71     -123761.68      776.50738      436.73278      1586.0204      0.63054815     35030.642      30.105106      10.736526     -3.0595884    
     38440   338.68642     -124914.22     -123752.22     -1435.5813      325.16422      1417.2135      0.63046958     35035.008      23.299468      11.85722      -3.7056031    
     38460   309.48102     -124806.96     -123745.15     -1210.0863      288.91194      1392.4634      0.63053643     35031.293      20.704157      15.809759     -9.8587809    
     38480   337.96726     -124906.57     -123747.03      253.78298      657.6743       1794.2317      0.63067805     35023.427      21.77971       8.1061537     -10.059237    
     38500   335.89012     -124902.76     -123750.35     -128.01464      355.36977      1573.3464      0.63077426     35018.085      22.945551      5.2431541     -1.6285176    
     38520   364.67912     -125000.02     -123748.84      104.21444      274.85441      1379.3337      0.63084581     35014.113      23.920384      7.9833086     -7.9479126    
     38540   335.95386     -124897.14     -123744.52     -1160.8611      295.49259      1465.7312      0.63090876     35010.62       23.197145      9.3311642     -9.0156551    
     38560   334.64275     -124882.64     -123734.51      371.56935      608.38028      1665.8426      0.63100943     35005.034      26.732079      2.7539514     -12.435285    
     38580   323.45552     -124850.6      -123740.85     -909.70175      367.31204      1455.8273      0.63112994     34998.35       21.520725      8.0073689     -9.0023382    
     38600   332.72629     -124896.46     -123754.91     -383.11041      313.17846      1526.8149      0.63122145     34993.277      19.586647      3.9872731     -7.0452902    
     38620   323.37963     -124857.03     -123747.54     -842.72927      309.63039      1581.6118      0.63126042     34991.116      20.863394      4.3026856     -9.1878902    
     38640   337.15456     -124884.22     -123727.47     -911.29824      966.74947      1963.5175      0.6312837      34989.826      21.308854      6.4125042     -14.555965    
     38660   401.03325     -125084.72     -123708.81      512.44589      342.99561      1419.0977      0.63126809     34990.691      20.542614      5.857159      -17.2777      
     38680   327.28965     -124844.19     -123721.29      1709.9841      420.10726      1767.0482      0.63122481     34993.09       21.276215      9.8732393     -14.45922     
     38700   315.57031     -124831.2      -123748.51      116.74078      520.41886      1674.5848      0.63108459     35000.865      17.433606      10.993286     -15.224048    
     38720   320.88139     -124823.12     -123722.2      -238.24515      267.02891      1429.605       0.63085232     35013.752      22.406472      14.349797     -11.244182    
     38740   318.57268     -124817.24     -123724.25      475.80124      245.54344      1308.9133      0.63062694     35026.265      21.575231      11.54281      -11.803634    
     38760   328.18395     -124862.09     -123736.12      441.16832      246.05175      1212.6057      0.63047558     35034.675      21.09471       11.668152     -12.487638    
     38780   310.73887     -124796.64     -123730.52     -1112.2651      335.29485      1353.63        0.63024834     35047.306      18.875949      14.192925     -15.752183    
     38800   298.44098     -124729.51     -123705.59     -117.1948       283.91893      1452.0804      0.62997783     35062.356      19.773417      14.966887     -13.440587    
     38820   318.40879     -124780.59     -123688.16     -1555.1023      181.56605      1251.5732      0.62965662     35080.242      21.573207      10.473612     -9.0891042    
     38840   338.15038     -124822.51     -123662.35     -720.70234      414.25425      1415.5253      0.62935529     35097.038      20.754623      10.13233      -6.5750352    
     38860   340.24793     -124800.31     -123632.95      746.8024       263.3921       1324.3715      0.62908159     35112.308      24.105731      3.4445207     -5.0912734    
     38880   318.10859     -124716.89     -123625.48      670.70797      263.9517       1370.9876      0.62880951     35127.501      26.83364       7.654698      -2.9335196    
     38900   336.73064     -124773.62     -123618.33     -164.63657      271.33184      1427.7139      0.62846702     35146.645      22.231582      11.167883     -1.7038561    
     38920   333.00151     -124745.54     -123603.04     -1818.5702      479.38761      1494.3699      0.62812971     35165.518      22.275836      11.384649      2.0471819    
     38940   358.09266     -124836.73     -123608.15      2085.7383      236.78503      1339.8882      0.62787679     35179.684      21.939418      10.579987      4.3531617    
     38960   334.23604     -124758.52     -123611.79      444.9399       277.25763      1423.9692      0.6276477      35192.524      23.337381      14.19256      -0.42729448   
     38980   344.14482     -124790.63     -123609.9      -605.17518      374.52316      1531.3439      0.62740113     35206.355      21.046712      14.032433      0.61580208   
     39000   352.09027     -124817.68     -123609.69      1854.4159      291.29984      1584.8719      0.6270745      35224.693      19.596857      9.7428675      3.2135766    
     39020   338.14688     -124780.09     -123619.94     -214.8662       248.74353      1429.7968      0.62672771     35244.184      22.644572      10.748637     -1.240723     
     39040   315.66336     -124712.15     -123629.14     -116.74136      240.96295      1411.2075      0.62642453     35261.242      26.06331       17.463002     -5.0315596    
     39060   341.66569     -124810.01     -123637.78     -373.23486      311.07192      1579.8054      0.62617686     35275.189      28.329645      16.964362     -5.5360495    
     39080   348.76109     -124848.89     -123652.32      407.72136      236.48304      1359.4089      0.62589721     35290.949      25.529757      18.115833     -1.6516731    
     39100   318.82226     -124755.26     -123661.41      24.551594      276.02815      1494.3589      0.62552339     35312.04       23.181717      21.201021      0.022808328  
     39120   351.85977     -124883.96     -123676.76     -676.57324      341.19982      1433.2802      0.62518033     35331.417      24.876156      22.273562     -2.6425589    
     39140   361.29496     -124933.63     -123694.06     -27.556823      314.43219      1447.7143      0.62492092     35346.083      27.621975      22.254336     -5.4287401    
     39160   316.22799     -124791.9      -123706.95     -1379.4834      281.51653      1414.0119      0.62461851     35363.196      24.657919      20.312961     -2.1759956    
     39180   329.67113     -124847.79     -123716.71     -96.646348      466.27376      1522.6075      0.62434031     35378.953      23.011664      15.573956     -0.79336415   
     39200   345.451       -124911.91     -123726.7       454.99241      260.27022      1389.747       0.62405496     35395.131      20.435571      21.843238      2.0152051    
     39220   390.1817      -125074.91     -123736.23      3871.2174      265.7901       1462.5035      0.62381865     35408.539      21.058822      22.757913      4.7964264    
     39240   357.471       -124985.44     -123758.99     -840.9277       319.44156      1368.3919      0.62355335     35423.604      21.478864      19.979211      2.484243     
     39260   352.30106     -124988.44     -123779.73      2194.8258      351.61738      1539.5479      0.6233587      35434.665      21.793016      17.851117      5.1773633    
     39280   342.76791     -124980.9      -123804.89      451.84671      271.33896      1502.7937      0.62311855     35448.322      23.942135      20.687147      4.8147375    
     39300   305.23208     -124866.9      -123819.68     -534.9413       279.6148       1394.4374      0.62287185     35462.362      25.034562      23.89534       7.8908428    
     39320   336.92692     -124993.71     -123837.74      2511.9505      355.01336      1492.4539      0.62271394     35471.354      23.462793      22.051994      11.831591    
     39340   327.02382     -124975.51     -123853.52      667.75216      259.92589      1376.0258      0.62256819     35479.658      20.955378      24.975264      13.286536    
     39360   340.02571     -125033.45     -123866.85     -1758.6224      417.33803      1424.3838      0.62239402     35489.587      22.701823      19.099725      9.7593863    
     39380   325.3395      -125004.08     -123887.86      878.39488      565.93962      1749.55        0.62227967     35496.109      20.058445      24.273444      11.307874    
     39400   317.58624     -124994.71     -123905.1       472.07523      520.98768      1550.9477      0.62215303     35503.334      18.313142      21.204449      11.297516    
     39420   331.72832     -125061.51     -123923.38     -1823.7027      431.65055      1388.0127      0.6220535      35509.014      18.846629      20.095765      13.343486    
     39440   299.87564     -124975.42     -123946.57     -1195.5133      457.22582      1529.7834      0.62202611     35510.578      21.020299      23.47057       11.510049    
     39460   319.83501     -125060.95     -123963.62     -249.26817      294.43279      1442.1628      0.62200344     35511.872      18.928774      28.395131      11.180608    
     39480   339.26803     -125142.58     -123978.58      448.53875      1086.7269      1963.3615      0.62200804     35511.61       18.813242      26.910035      8.623152     
     39500   377.57737     -125297.34     -124001.91      1278.1952      1064.5944      2290.1284      0.6220242      35510.687      16.915938      24.001724      7.83022      
     39520   313.7816      -125099.02     -124022.46     -258.21216      384.06068      1680.6576      0.62196842     35513.872      15.690798      28.873185      9.2495685    
     39540   308.99976     -125125.01     -124064.86     -418.16699      621.21198      1576.7733      0.62194764     35515.059      16.62397       26.895409      7.3228972    
     39560   319.19325     -125177.79     -124082.67      2043.0332      345.49076      1512.1113      0.62196109     35514.29       12.938913      20.131882      5.2162553    
     39580   289.67349     -125009.88     -124016.04     -183.92842      415.14887      1609.9172      0.62199516     35512.345      15.720745      22.663398     -0.84627967   
     39600   334.04408     -125169.35     -124023.28      574.51229      423.74257      1619.8031      0.62212912     35504.698      14.538695      20.26541       2.2325099    
     39620   328.40069     -125169.17     -124042.46      1754.1927      403.36535      1726.4777      0.62230417     35494.711      14.285342      22.590786      3.1196548    
     39640   301.12124     -125092.11     -124058.99     -855.57699      415.61476      1555.0599      0.62238526     35490.087      13.27355       25.055903      4.5588648    
     39660   309.64302     -125123.44     -124061.08     -925.98379      379.10525      1474.0837      0.62247765     35484.819      15.768824      29.026584      3.510999     
     39680   302.37796     -125114.82     -124077.39      1104.0297      554.53323      1766.9322      0.62266108     35474.365      12.943994      25.603203      3.0308927    
     39700   284.80273     -125060.27     -124083.13     -343.23075      523.30832      1604.2101      0.62286199     35462.923      8.3801599      24.568119      1.5393156    
     39720   304.12231     -125130.62     -124087.2       1423.628       377.44569      1530.6854      0.62311335     35448.617      17.505923      28.262073      5.9311349    
     39740   340.69688     -125259.04     -124090.14      1322.2094      898.90405      1907.1475      0.62336685     35434.202      17.222966      26.66654       2.3388128    
     39760   346.06872     -125283.65     -124096.31      1722.8709      300.6515       1392.2608      0.62356639     35422.863      13.503817      25.771322      2.1906775    
     39780   295.22909     -125092.11     -124079.2       103.96637      275.72221      1475.893       0.62378559     35410.415      12.372238      23.139803     -2.9927403    
     39800   305.01237     -125134.15     -124087.68     -1677.2224      230.39334      1299.5735      0.62406348     35394.647      14.472871      27.785515     -7.9410026    
     39820   293.91119     -125102.92     -124094.54      199.40589      360.23592      1449.2388      0.62436867     35377.347      12.883958      28.148111     -3.147592     
     39840   339.34572     -125270.5      -124106.23      1036.6107      576.90093      1556.3756      0.62456067     35366.471      11.216082      24.898897     -2.8733499    
     39860   312.55158     -125184.56     -124112.22     -638.57216      255.62113      1307.4804      0.62469856     35358.664      10.762373      28.029693     -5.9584331    
     39880   309.69357     -125186.41     -124123.88      1945.3095      281.54143      1442.3373      0.62491323     35346.518      11.03189       32.450616     -7.709311     
     39900   302.99949     -125176.61     -124137.04      1268.2916      244.94776      1376.8389      0.62510745     35335.536      13.193149      31.948887     -10.073384    
     39920   303.41501     -125188.17     -124147.18      1275.4809      304.3844       1427.6016      0.6251946      35330.61       13.443077      29.797635     -8.5482149    
     39940   294.52379     -125167.57     -124157.09      1426.178       453.67845      1510.3263      0.62525706     35327.081      13.12656       23.835806     -9.7494856    
     39960   281.49715     -125129.42     -124163.63     -580.03053      320.82131      1477.2253      0.6252624      35326.779      10.618549      25.811083     -10.324717    
     39980   307.15257     -125225.46     -124171.64      225.94655      541.01915      1542.586       0.62528713     35325.382      10.99333       22.965063     -10.519264    
     40000   289.63958     -125154.82     -124161.09      156.74173      531.72421      1481.1209      0.62537104     35320.642      13.877981      25.782163     -9.57487      
Loop time of 1094.73 on 32 procs for 40000 steps with 1152 atoms

Performance: 1.578 ns/day, 15.205 hours/ns, 36.539 timesteps/s, 42.093 katom-step/s
99.1% CPU use with 32 MPI tasks x 1 OpenMP threads

MPI task timing breakdown:
Section |  min time  |  avg time  |  max time  |%varavg| %total
---------------------------------------------------------------
Pair    | 339.89     | 612.49     | 838.29     | 719.1 | 55.95
Neigh   | 23.969     | 42.915     | 58.279     | 181.0 |  3.92
Comm    | 18.582     | 94.614     | 202.26     | 472.9 |  8.64
Output  | 1.2744     | 1.5035     | 1.6633     |   8.8 |  0.14
Modify  | 163.79     | 342.69     | 629.66     | 939.1 | 31.30
Other   |            | 0.5205     |            |       |  0.05

Nlocal:             36 ave          89 max           0 min
Histogram: 11 7 0 0 1 0 1 3 4 5
Nghost:        1317.91 ave        3145 max         146 min
Histogram: 16 1 0 1 1 0 1 1 10 1
Neighs:        14280.9 ave       47109 max           0 min
Histogram: 18 0 1 0 0 3 4 2 3 1

Total # of neighbors = 456989
Ave neighs/atom = 396.69184
Neighbor list builds = 4000
Dangerous builds not checked
unfix           npt


write_data npt.lammps
System init for write_data ...

# isotropic volume relaxation to hydrostatic target

#fix             3 all box/relax  vmax 1.0e-3
#variable        emin equal pe+f_3/atoms
#thermo_style    custom step temp pe pxx pyy pzz f_3 v_emin  cella cellb cellc cellalpha cellbeta cellgamma
#minimize    1.0e-6 0.001 1000 10000

write_data final.lammps
System init for write_data ...
Total wall time: 0:18:14
