LAMMPS data file via write_data, version 2 Aug 2023, timestep = 4000, units = real

576 atoms
3 atom types

-2.571770771517363 3.410770771517354 xlo xhi
-2.99386212415449 2.99386212415449 ylo yhi
16.585007758769848 230.1065942412281 zlo zhi
-0.02136083694811189 -0.0031766848963703177 -0.03280667287414425 xy xz yz

Masses

1 12.0107
2 18.998404
3 1.00794

Atoms # charge

17 3 0.1830197777246526 0.0689515085015624 0.6361763002299292 21.74916129056864 0 0 0
18 3 0.195239365076731 1.4956188607805987 1.2868818400032365 22.518824333449253 0 0 0
20 2 -0.1280382685145402 0.1823560215462079 -2.196303733827631 22.869819020400286 0 1 0
4 1 -0.1834380575440557 2.473916536318526 0.33236076700243977 17.29305451108643 0 0 0
21 2 -0.12923135364587 -1.6049171663240205 2.4626699874175766 22.369424564616125 0 0 0
19 1 0.1098205045306882 -0.2748880789844219 2.4309563121889224 22.87098939909325 0 0 0
7 1 0.09918653392264912 2.2091354261678924 1.528657858493093 18.28162469199993 0 0 0
8 2 -0.1330613696588931 -2.4995000560448895 2.107510724154103 18.600638557480178 1 0 0
9 2 -0.1339994431864155 1.5338732994244233 2.5274816240700617 17.608928641999437 0 0 0
10 1 -0.1923237187853534 1.4978572368148115 1.1006429326616431 19.634112703759673 0 0 0
11 3 0.1833694563563978 0.6827823203871262 0.42730005226177203 19.447509847519758 0 0 0
12 3 0.1823365512526678 2.2078826081221554 0.5804524874791719 20.170917379797814 0 0 0
13 1 0.1035530267146299 0.9767190524025575 2.18676622202682 20.615434164806075 0 0 0
14 2 -0.1318228762913387 1.9429120321987008 -2.8160392543977237 20.812838497946927 0 1 0
15 2 -0.1323969811572946 -0.19122514006535507 2.849789749462349 20.06926390140748 0 0 0
16 1 -0.1913151647271406 0.6127612071232083 1.5266297395724915 21.967202952579978 0 0 0
5 3 0.1756097493157122 2.479561287573618 -0.6219725788526564 17.814331071963412 0 0 0
6 3 0.1878329811251512 -2.508852428695723 0.33560424832836455 16.94880235272822 1 0 0
37 1 0.0965423837728038 -0.7769652446626245 -0.2765396309515187 29.342141469017356 0 0 0
39 2 -0.130384632976052 -1.3037594668168548 -1.3731874430014106 28.699586433998597 0 0 0
36 3 0.184293569977011 0.996316022905225 0.9718206631276516 29.015076402680307 0 0 0
22 1 -0.1637282472139732 -0.18742529765006477 1.905322835060288 24.340874232695562 0 0 0
35 3 0.1943932679996067 0.9935798845799972 -0.5152252640788335 28.14954506182446 0 0 0
24 3 0.1980742627109529 -0.17079190363353147 0.8677851124705138 24.291167482149582 0 0 0
25 1 0.1059969539523411 1.0389330386425781 2.4039740209467655 25.148895663945822 0 0 0
26 2 -0.1271027958582814 2.1918472558119064 2.318043160922309 24.30676819755137 0 0 0
27 2 -0.1257907752114475 0.9739155213926045 -2.295307265825449 25.536399734579597 0 1 0
28 1 -0.05358985408483216 1.3115742678259124 1.4440449826539932 26.3905208371932 0 0 0
29 2 -0.1246606660593781 2.1739330897171425 0.35500652578854597 26.045628303301676 0 0 0
30 3 0.1905275645596417 1.7510091521650355 2.044219177299349 27.170630034459883 0 0 0
31 1 0.08342264997075814 -0.0248556554407533 0.9376244732568209 27.087060757969297 0 0 0
32 2 -0.1304549716605172 -0.9558133026955364 1.9204849938670558 27.367497664547123 0 0 0
33 2 -0.1275494796332228 -0.6475419679719225 -0.0060995770811285155 26.308163322810593 0 0 0
34 1 -0.167942317494486 0.3781122293451 0.2966747186141463 28.42029041550282 0 0 0
23 3 0.2117169022643572 -1.0849291996112362 2.198344383555392 24.936336399591582 0 0 0
38 2 -0.1310434755560888 -1.7975211237522974 0.7073791630212036 29.469591134215506 0 0 0
54 3 0.1879868288902821 1.1886843201014048 -1.4012043621940244 35.544554355966994 0 0 0
53 3 0.1709375695274025 -0.5513308748700472 -1.7303076443872785 35.262622747594406 0 0 0
52 1 -0.1938654480186324 0.20365464032577396 -0.9316515176657019 35.55762421130662 0 0 0
42 3 0.1879598904105768 0.4723842694263949 -1.3864865046800736 30.722896347136338 0 0 0
41 3 0.1868907932276919 -1.1965586568456805 -1.2724535005964892 31.15388950530552 0 0 0
51 2 -0.1308646194429587 -1.3000234103145958 0.6413201845229062 34.66054934695152 0 0 0
43 1 0.09957856430459996 0.09784830607465222 0.3541539538167746 31.805580770929005 0 0 0
44 2 -0.1292443506217868 1.237563707438044 0.9997354135450984 31.384679298593742 0 0 0
45 2 -0.1291502094991055 -0.8807954363019377 1.3416321915786615 31.91937191545736 0 0 0
46 1 -0.06404712902118492 0.3238204454201363 -0.4641969359029976 33.10707550529067 0 0 0
47 3 0.1720795983056589 -0.3732851477231933 -1.3081210233755396 33.00198713087643 0 0 0
48 2 -0.1274200847075599 1.673501473808296 -1.1087251346529035 33.04505039768249 0 0 0
49 1 0.1047994680487745 0.04129037374295974 0.19009677395131064 34.559409080394474 0 0 0
50 2 -0.1317844664024935 0.9467828107342604 1.2507277592328205 34.83456426136975 0 0 0
40 1 -0.1950567795993504 -0.3085009156076697 -0.7177355866864401 30.766975385729157 0 0 0
70 1 -0.1687663928978934 -1.3471133789016299 -2.25826905719069 42.26148114239622 0 0 0
71 3 0.2065149201555303 -0.49656158671577 -2.6186718006727476 41.76463362397297 0 0 0
72 3 0.1959565929444249 -1.042144627432094 -1.3093377150622407 42.66201539871028 0 0 0
59 3 0.1766334043670424 -1.3945803681709026 -1.8303268978100584 37.52728088438643 0 0 0
58 1 -0.1776601045441578 -0.44498971063425863 -1.7239965152986108 37.877542147005485 0 0 0
69 2 -0.1193066213494203 2.8464484648927466 2.722117950359961 40.986529161608075 -1 -1 0
61 1 0.09760831843681728 -0.5904907561936632 -1.8586165659147602 39.44488725305423 0 0 0
62 2 -0.1209784902600454 -0.323159722174831 2.8159281092417943 39.81681528714175 0 -1 0
63 2 -0.118937456290931 0.3145698085498583 -1.023497971557823 40.013679647529884 0 0 0
64 1 -0.03787602759216152 -2.019921087414567 -1.4596742864134373 39.85745667318773 0 0 0
65 2 -0.1160776086696618 -2.2581156550293353 0.030206571644503022 39.7682642040443 0 0 0
66 3 0.1959888054263586 3.3224596680385194 -1.8392425584591228 39.11897909793656 -1 0 0
67 1 0.1229237410241107 -2.4808247880352035 -2.0626464938074713 41.22451219387442 0 0 0
68 2 -0.1214038108008117 2.468095727300947 -1.2569389565025446 41.81832165499786 -1 0 0
57 2 -0.1286664689403628 -0.8487073537910075 0.5572535677740436 37.187022964182816 0 0 0
60 3 0.1849667383056183 0.13689843671029056 -2.572080865477394 37.42772175459568 0 0 0
56 2 -0.126623593001631 1.3449901893031169 -0.045227337254929445 37.55550749103534 0 0 0
55 1 0.09569784721176644 0.057246365267659804 -0.5142988215515172 37.07907456535956 0 0 0
75 2 -0.1231743303415331 -1.6800562948568292 1.521634646016388 43.25736474433981 0 -1 0
88 1 -0.1660530310537874 1.36483928321843 2.8729445201865276 49.190587096926855 0 -1 0
89 3 0.1990638866870164 2.156364892443769 -2.3949810588343885 48.86997408648483 0 0 0
90 3 0.20728225377454 0.5680698587885633 -2.519980665169625 49.50000170165044 0 0 0
76 1 -0.2005208517916761 -0.3931885886930404 -2.840248058620448 44.490006364863724 0 0 0
77 3 0.1912782636996006 0.5113834797432433 2.9745544459598645 43.996145898811406 0 -1 0
78 3 0.1927030418140182 -0.40429058964499465 -1.8352299272634065 44.8530103847254 0 0 0
79 1 0.1262622938308857 -0.37235289321948484 2.2302062382718133 45.73003337028902 0 -1 0
80 2 -0.1236194470101619 -1.6731662445637663 1.9421620329880098 46.17338378566784 0 -1 0
81 2 -0.1259694594600738 0.29243557231015815 1.010400292396064 45.378256742268945 0 -1 0
82 1 -0.07163502891757541 0.47902205977973544 -2.9495920116008634 46.78613897626616 0 0 0
83 3 0.1918248077246125 1.2963602088249297 -2.4654443742613132 46.33106912066049 0 0 0
84 2 -0.121052118874869 -0.27160131430929546 -1.8076342922736097 47.29030365651357 0 0 0
85 1 0.133500548537613 0.9378211587706122 2.061891174897293 47.98033893374232 0 -1 0
86 2 -0.1207846610309907 -0.07169457742443663 1.2207904768372289 48.33978085525673 0 -1 0
87 2 -0.1205729584007711 1.963005019439993 1.2432369831971077 47.53933244117104 0 -1 0
73 1 0.1113081728262321 -1.6479202009539788 2.884200022422704 43.55056059304335 0 -1 0
74 2 -0.1290711345904483 3.11338673981581 -2.7418401958818297 44.15834203018541 -1 0 0
91 1 0.1105565226955863 1.8959915528559148 2.1200623237871334 50.49239239636053 0 -1 0
92 2 -0.1212613994933885 1.064621023253277 0.996160027385022 50.67252445312268 0 -1 0
93 2 -0.1195946959641976 3.161493844194982 1.6347804511343367 50.25196158413581 0 -1 0
94 1 -0.1614893987089748 1.894696826151058 2.898073690075139 51.8455784253985 0 -1 0
95 3 0.2165764616577351 2.5489783095778518 2.429896894302637 52.5715858033535 0 -1 0
96 3 0.1984417101848326 2.311733580756725 -2.150791908737302 51.56350985183279 0 0 0
97 1 0.09806939060806993 0.6385382097342385 -2.7374422540192165 52.61345243663289 0 0 0
98 2 -0.1242157635533604 -0.384090671658758 -2.3871724475515914 51.688337963023756 0 0 0
99 2 -0.1226679752429574 0.17071345363109236 2.1564174763133965 53.2856187076973 0 -1 0
100 1 -0.03324040442675653 0.8170646747649002 -1.6149958398946203 53.67929319692831 0 0 0
101 2 -0.1219998037008252 1.040929885677055 -0.3172569770166329 52.96656812627499 0 0 0
102 3 0.2124202626369384 -0.1311708525773292 -1.5443268660888176 54.20825869489519 0 0 0
103 1 0.09131613782329537 1.8220652755930895 -1.8807057069811322 54.85008109999065 0 0 0
104 2 -0.1258916366304132 1.947485937522655 2.711810298493756 55.07999370534043 0 -1 0
105 2 -0.1250627175974702 3.127017622211247 -1.42149072265983 54.49397423838257 0 0 0
106 1 -0.1762066483981832 1.3861016598836269 -1.2615621262548697 56.23607737744492 0 0 0
108 3 0.2024047373103443 1.716784108505411 -0.2407659017028556 56.2507204762114 0 0 0
111 2 -0.1279288642461105 -0.6323078101985384 -2.6162624409543898 56.42207296930886 0 0 0
110 2 -0.1269868574800869 -0.8691009243383019 -0.37655069597791346 56.16280328154432 0 0 0
107 3 0.1914672374280663 1.9825023222159053 -1.7607353295091261 57.00071698077066 0 0 0
123 2 -0.1271605738973934 1.0030447756589584 -0.8568265115316906 60.76409164756173 0 0 0
109 1 0.0758692904088146 -0.07814144159450409 -1.3910317444577345 56.74087661467727 0 0 0
112 1 -0.1672584282409913 -0.2363961230919367 -1.2430932793283913 58.33055559018824 0 0 0
113 3 0.1918515048415322 0.6888949493986738 -1.637978940309464 58.68489088741118 0 0 0
114 3 0.1998617407048997 -0.2975296824870983 -0.16602993877636196 58.5086365668142 0 0 0
115 1 0.09577448227064003 -1.319044515832493 -1.9441313649003396 59.15864415301183 0 0 0
116 2 -0.1316178706859695 -2.552120897679956 -1.3771853775028957 58.87215878246053 0 0 0
117 2 -0.1261148544031804 -1.3925198445555005 2.6470408299948827 58.74676129899969 0 -1 0
118 1 -0.03309713426507842 -1.177701399307683 -1.8965988106959843 60.722145183061684 0 0 0
119 3 0.2042954372638811 -1.6908473634903713 -1.0249593083775415 61.11223501663416 0 0 0
120 2 -0.1218636117646786 -2.070034186460495 -2.8801621546440983 61.37178427667374 0 0 0
121 1 0.09698803026856184 0.25438196828949033 -1.8676018139522637 61.39599797513148 0 0 0
122 2 -0.1234394917478437 0.857028000504461 2.8870985779361233 61.16681881434295 0 -1 0
124 1 -0.171538152577316 0.21665360595940264 -1.632940214649841 62.92318215439896 0 0 0
128 2 -0.125798943133375 0.9088479818345605 0.6768765050056063 62.982420116785484 0 0 0
129 2 -0.1271400779688466 -1.3189276163893389 0.2724750216362781 62.76890398139543 0 0 0
144 3 0.18640790027549 0.894005541920988 1.3804004637590226 69.66259549653958 0 0 0
141 2 -0.1256357065384855 -1.3283050593516026 2.9702113275009965 67.82192255232879 0 0 0
142 1 -0.1825413172068945 -0.04564190979450977 1.8685259817550253 69.56914780856061 0 0 0
130 1 -0.182352337779967 -0.3250184713702944 -0.17418794476938038 64.9363968888191 0 0 0
131 3 0.1988654392407122 -1.3787327302780161 -0.4539435227317057 65.04205878920504 0 0 0
132 3 0.1830778322333417 0.3617109659294613 -0.8906479960839544 65.3734349621235 0 0 0
133 1 0.1004205543040969 -0.14046870017373259 1.183986396485753 65.64790388865976 0 0 0
134 2 -0.131651053097394 1.162084848158369 1.6482771048375997 65.45150515272846 0 0 0
135 2 -0.1320825378189751 -1.0108585586258374 2.175950103903593 65.1736768607779 0 0 0
136 1 -0.06100809366999988 -0.40857456680164006 0.8448065290675384 67.14735706946436 0 0 0
137 2 -0.1241022362965373 -1.8701190332011932 0.3985728573885474 67.33043644878718 0 0 0
138 3 0.1857999429582148 0.3639150226619883 0.1172871950841401 67.53621255884121 0 0 0
139 1 0.1165234314999035 -0.22507112295335618 2.129810405611559 68.01177082549205 0 0 0
140 2 -0.1280256340808976 0.8827503023566945 2.8434474679279087 67.57958468703572 0 0 0
143 3 0.186344126930116 -0.7158980329347471 1.0957638976510666 69.92166967810313 0 0 0
127 1 0.09519642775304174 -0.1104029847639052 -0.17632909473549052 63.400491902203875 0 0 0
126 3 0.1992486578160954 1.1717200579364149 -1.8751723380645684 63.31405643538218 0 0 0
125 3 0.1960726249213065 -0.4962987995300687 -2.328483687164101 63.395092472374365 0 0 0
145 1 0.1101100436275036 -0.15734125055220005 -2.923282516646414 70.5117426936435 0 1 0
159 2 -0.1285925444385728 -1.7527919046045022 -1.7414232722933571 75.95310921293766 0 1 0
147 2 -0.1284986472291405 -1.3303235475582862 -2.2294939538698904 70.27300782554181 0 1 0
148 1 -0.1990287706608972 -0.09115243279539831 2.525122637924993 72.02581403688816 0 0 0
149 3 0.1779089175696902 -0.41596635735036847 1.515060433873534 72.030216572482 0 0 0
150 3 0.1805826035382614 0.9784840239266961 2.500081366451042 72.32346534647967 0 0 0
151 1 0.09776671368412544 -0.7939089678742328 -2.5910891740076503 73.06885093335703 0 1 0
152 2 -0.1346428303046317 -0.5144980896400919 -1.234725067552938 72.81380520649955 0 1 0
153 2 -0.1321989173093915 -2.1944770744470192 -2.6879670562354763 72.94652271044106 0 1 0
154 1 -0.1811163817242366 -0.34284369923610836 -2.9670682489556017 74.52438749665873 0 1 0
155 3 0.1970542820434938 -0.8974841779886376 2.2296939745038142 74.94905401081488 0 0 0
156 3 0.1803515072104853 0.6360237464976461 2.6954131197080176 74.48800361320804 0 0 0
157 1 0.08762720539511804 -0.42238640720843 -1.867507015071185 75.60855646805939 0 1 0
158 2 -0.1325839945239137 -0.005695328076952055 -0.6877502143805487 75.07434185137663 0 1 0
146 2 -0.1291087062940008 0.8980839822713511 -2.075260901017579 70.28941834160379 0 1 0
161 3 0.1975769732463376 1.271827834423684 -1.4451735205779745 76.61249669396403 0 1 0
163 1 0.08168519850969777 0.8097255095920168 2.6680680999344717 77.56706999276562 0 0 0
164 2 -0.1306473608789969 -0.1298064089229296 1.624784218686893 77.21035594599155 0 0 0
162 3 0.193618773526016 -0.12723107386546983 -1.390949974309445 77.75813673873404 0 1 0
166 1 -0.1787460402795744 0.8310674043016628 2.764126381166029 79.13870101616462 0 0 0
167 3 0.189588455867299 1.2167662345514585 -2.2674723177910243 79.42165934201435 0 1 0
168 3 0.195901255948391 -0.19512488358503477 2.6968667513098565 79.400800498756 0 0 0
169 1 0.1116114218458625 1.7178779618157693 1.9039039452125404 80.05708156687348 0 0 0
170 2 -0.1282259028804199 1.7247207413786039 0.5846446625657475 79.60657708310106 0 0 0
171 2 -0.1274075266874993 3.09121203129181 2.387441060949603 79.90580923089706 0 0 0
172 1 -0.06143373961818172 1.3019402947192207 1.9584622351450922 81.64527385809706 0 0 0
173 2 -0.1313340827686562 2.393648462311248 2.0121753071051365 82.5492336610929 0 0 0
174 3 0.1807636120818587 0.8248089042760189 2.9192926371495456 81.85197413717385 0 0 0
175 1 0.1090196346079198 0.32288598132098434 0.8084872822131013 81.98561887836624 0 0 0
176 2 -0.1289883977641295 -0.679726368542817 0.669114337331306 81.05468425602193 0 0 0
177 2 -0.1304130525330257 1.0396189543883834 -0.44536014842480975 82.05701530462267 0 0 0
160 1 -0.1762137617332493 0.36468047325355046 -1.9691815232371979 76.95787063999666 0 1 0
165 2 -0.1282540110164333 2.066584718648597 2.342161153966248 77.08366430607947 0 0 0
182 2 -0.1316346775682713 -2.051134973394879 -0.5094109128241553 83.23854017008965 0 0 0
180 3 0.1849941360017949 -0.9356399918859795 2.0338379285219124 83.07495911957092 0 0 0
181 1 0.09477521287647463 -1.1040334045142361 0.10055591682567133 84.080098612045 0 0 0
178 1 -0.1698117105074756 -0.2912361754870587 1.1713186179298574 83.3241235410604 0 0 0
183 2 -0.1340554741062243 -0.24416112023174552 -0.89635832784648 84.5130899952386 0 0 0
184 1 -0.1812294221504877 -1.8624221353795352 0.7197271551307409 85.34582111292744 0 0 0
185 3 0.181212833746895 -2.445453662189774 1.5352828398372114 84.95613715652506 0 0 0
186 3 0.1972710849299568 -2.519751387462857 -0.016861529205628223 85.66797884444128 0 0 0
187 1 0.07410464247490042 -1.0328551938242994 1.127396864811304 86.53352686190591 0 0 0
188 2 -0.1338023201958793 -0.386358102644075 -0.034400541744946 87.02651143642072 0 0 0
189 2 -0.136509279371849 -0.07710123154421789 2.0146039794073842 86.07438087225611 0 0 0
190 1 -0.06030445242909632 -1.9853977837855386 1.8027656946888952 87.65297811403653 0 0 0
191 3 0.1896672121877483 -2.2841193320763726 2.8132770257223547 87.3190043007072 0 0 0
192 2 -0.1295588828666433 2.805982547039864 0.9914913893798278 87.79895814400321 -1 0 0
198 3 0.2048015344313475 -0.5295718681398651 -0.07193568320656363 89.07897851761906 0 0 0
194 2 -0.130281013682801 0.09120252759380953 2.458175394417444 88.77213278025582 0 0 0
193 1 0.08492822594727439 -1.2161191454284672 1.9278434857335172 89.01409861262685 0 0 0
179 3 0.1903655244023085 0.43736806724075006 1.520284435039923 84.05370841641655 0 0 0
196 1 -0.1630484170494828 -1.00593380870418 0.5932146508608911 89.77137604324648 0 0 0
195 2 -0.128250491280321 -1.8779115938547588 2.8379770708293344 89.8365192591627 0 0 0
197 3 0.2017934649791676 -1.9711212587326048 0.15894331306525622 89.94428506692283 0 0 0
199 1 0.1063181196060178 -0.13443718339629163 0.5539718931382218 91.07773255098965 0 0 0
200 2 -0.1270818542740811 -0.4227612506860514 -0.635811850230863 91.63947111366055 0 0 0
214 1 -0.1710617287419964 -0.20868904359481633 1.5862374823856134 96.58946916088935 0 0 0
202 1 -0.1639908947596828 -0.35796130662066217 1.7015347133853296 92.09403583876374 0 0 0
203 3 0.2071677357689999 0.02609233841884473 2.6067111629348667 91.73760916422813 0 0 0
204 3 0.1948180976190642 -1.4058742977807102 1.8101493744581716 92.18606008618134 0 0 0
205 1 0.09170077804388857 0.27739534584942405 1.4799400451944185 93.46492006926302 0 0 0
206 2 -0.1317262704744147 -0.42957018117553414 0.5054420338001222 94.15572500781595 0 0 0
207 2 -0.1256091762293883 1.5811335226616783 1.003709152224856 93.30307947746844 0 0 0
208 1 -0.05650875727472847 0.25354704272465245 2.8074247392504303 94.3035122200512 0 0 0
209 2 -0.1265020207545626 1.2367882326612305 -2.282532821347085 93.658089599351 0 1 0
210 3 0.1852036780242189 -0.7259321460808337 -2.83417641329829 94.2331444952579 0 1 0
211 1 0.09583384125673175 0.5083097677321455 2.7416432636741033 95.8977762017369 0 0 0
201 2 -0.125912397487528 1.24363780003008 0.5437521411569644 90.7276224004725 0 0 0
212 2 -0.1315446421623818 1.9599112461019428 2.7112259411834274 96.1259322170659 0 0 0
216 3 0.1893432152494945 0.006895507454030003 0.618397488030971 96.114609398839 0 0 0
215 3 0.1800194684280566 -1.3530800280421331 1.6918649993151074 96.43106169803653 0 0 0
213 2 -0.1368897001538589 0.06836678789630524 -2.0223500312320803 96.46697008439281 0 1 0
217 1 0.09035634067443346 0.1425144219771619 1.3197915251801668 98.09482237747989 0 0 0
218 2 -0.1334062506833935 1.5073063806156761 1.0295277507188278 98.15434043457638 0 0 0
219 2 -0.1312558300487582 0.00024828057882242405 2.517893629541368 98.79414858467587 0 0 0
220 1 -0.1862112818857206 -0.7114269744984734 0.13981272193187166 98.77628312082624 0 0 0
221 3 0.1898342883678692 -1.6756204974993412 0.19208153746288747 98.38984498203192 0 0 0
222 3 0.1863499758116385 -0.3249494996807871 -0.7885893281834999 98.35986697886611 0 0 0
223 1 0.1161249391796037 -0.7609102558626555 0.04570857401368977 100.30861859840972 0 0 0
224 2 -0.1234209019764773 -1.367928610089406 1.191411060099131 100.79639038359188 0 0 0
225 2 -0.1281398073966705 -1.6274123864532593 -1.0888432958005214 100.62102305595074 0 0 0
226 1 -0.04287520861401048 0.6112547067762182 -0.19007065571464077 100.97504150965905 0 0 0
227 3 0.1895485650843928 1.2759552959134877 -0.5990627225426124 100.29093284757943 0 0 0
228 2 -0.1226069880523146 1.3191865681243384 1.1156849582800894 101.22573904121715 0 0 0
229 1 0.09587276703972017 0.6472984823964687 -1.0151676430373735 102.36992142374791 0 0 0
233 3 0.2095027134360958 2.5727631546961347 -1.7633499672904114 102.09408642132395 0 0 0
231 2 -0.1233171781539008 0.13440001571609406 -2.315097726895219 102.20581132624342 0 0 0
234 3 0.2126831297314941 2.3981868140533398 -0.10700469462497164 102.79139704483576 0 0 0
232 1 -0.1633331096856906 2.0759826851844925 -1.0903615412459478 102.85011143803658 0 0 0
235 1 0.1132194315292867 2.4075431870852095 -1.6102008809359987 104.30468696635171 0 0 0
236 2 -0.1215028469303205 2.9755192696911466 -2.8945021926674133 104.17018947498917 0 0 0
237 2 -0.1214944469475874 3.398330742461058 -0.7355737791501968 104.77614049334309 0 0 0
238 1 -0.1693928670895135 1.332727215217676 -1.6374996304640308 105.42872344282382 0 0 0
239 3 0.2091112584462976 1.0580614510723931 -0.6411285221999843 105.75399068782592 0 0 0
240 3 0.2066904521179521 0.4994400214876782 -2.165234375629417 105.02095870662151 0 0 0
241 1 0.1171592268905787 1.6840783284054042 -2.5435623589390435 106.59877926290736 0 0 0
242 2 -0.1200944217939823 1.1839938452651055 2.142689765958791 106.38835255945564 0 -1 0
243 2 -0.1158177319039398 3.08348891799467 -2.7117116804208767 106.67154446714773 0 0 0
244 1 -0.03459717430272388 1.1362067371524276 -1.9403855581156315 107.92797357964191 0 0 0
245 2 -0.1123987100700749 1.7025966248473234 -0.6350128897986758 108.19087833022895 0 0 0
246 3 0.210238536115889 0.08141943131918694 -1.8071984003996087 107.80126323399767 0 0 0
247 1 0.1448856263294429 1.2707226773743145 2.9713357632296202 109.13871798830064 0 -1 0
248 2 -0.1131249528995358 0.47876696605752755 1.8290538990986351 108.98172275774404 0 -1 0
249 2 -0.115097020274617 2.62709739228803 2.5476950687513935 109.17392554552549 0 -1 0
230 2 -0.1242304123823509 -0.10968081895961923 -0.42380007532118613 103.34026468259727 0 0 0
253 1 0.1157910689914649 -0.40718567370092673 -2.0223642813214777 110.96883095426287 0 0 0
251 3 0.1875529037056892 1.452120612063577 2.793330414917795 111.2777120384365 0 -1 0
255 2 -0.1248295228617098 -1.3103157963163237 2.9445972448916167 110.76302277548002 0 -1 0
256 1 -0.1807272881615715 -0.3703276661077104 -1.5668534789279895 112.42032962000044 0 0 0
257 3 0.1621128755888245 -0.07038228023144244 -2.471765995108581 112.98498520399554 0 0 0
250 1 -0.169402263667132 1.0693929156662323 -2.4380504400885354 110.55121939984807 0 0 0
259 1 0.06440762362903893 -1.5955058563938094 -0.89278914792065 113.03142639464863 0 0 0
260 2 -0.1396583176130788 -1.6819821317060077 0.41658443298844183 112.58057536642382 0 0 0
261 2 -0.1442310344791701 3.218531301515465 -1.5721317579540526 112.66082567396883 -1 0 0
262 1 -0.09278491578320394 -1.4338602202667374 -0.9984041313776122 114.64485469696004 0 0 0
263 3 0.1791854638419041 -2.2001327927653684 -1.736006953479013 114.85560703019628 0 0 0
264 2 -0.1432815177981451 -0.1368604347643747 -1.4781365294655144 114.9127326205727 0 0 0
265 1 0.09233630140321461 -1.7520474542626527 0.22759935780568563 115.59403594519458 0 0 0
266 2 -0.1385947526160014 3.0009375454321705 0.8257055856841058 115.25910899729111 -1 0 0
270 3 0.1681106387534698 -0.9340877305459174 2.2416255029820698 115.04876826576559 0 0 0
268 1 -0.1839344070306582 -0.6459287321884637 1.3129416013310915 115.54228844541787 0 0 0
269 3 0.1858246639340278 0.09442697228732433 0.8235461245810409 114.92284874895685 0 0 0
254 2 -0.1182664093436935 -0.832935137097788 -0.981356557001789 110.15811576581048 0 0 0
252 3 0.2021272738268825 1.6300109615553366 -1.516593753857877 110.69970781143425 0 0 0
258 3 0.172113101999077 0.46148341605046017 -0.9103479917582349 112.60760040688592 0 0 0
288 3 0.192114662882304 0.12910531549636994 1.8006100304967867 122.91955489592128 0 0 0
287 3 0.1953461368944018 -0.4711431234706076 0.20808052935014176 122.76513738832932 0 0 0
286 1 -0.1712626654998836 -0.7634995477311468 1.2494534056672335 122.72444290559892 0 0 0
274 1 -0.1400270327480279 -1.0466913310078685 2.139847655085218 117.96769902832823 0 0 0
275 3 0.2039280929974022 -1.7879507570422275 2.5942849368383674 117.37060844593285 0 0 0
276 3 0.2244012407861959 -1.5392046117405407 1.3330222181473537 118.41021104980489 0 0 0
277 1 0.1253110436267715 -0.7176675533868206 -2.8981110071265395 119.15572791294392 0 1 0
278 2 -0.1128476851386131 0.2437706727449478 -1.9147909205136122 118.80094444449752 0 1 0
279 2 -0.1143908195851948 -1.903418481644302 -2.2070444335114487 119.49557823426257 0 1 0
280 1 -0.04008056647372786 -0.24612269030019096 2.2921673515741507 120.43433218284753 0 0 0
281 2 -0.1140787693510979 1.012662532225515 1.5869949543920794 120.2610004216409 0 0 0
282 3 0.2035463554226516 0.12372086207863475 -2.8491424069497975 120.96583208999002 0 1 0
283 1 0.1150097245729075 -1.3120189806427474 1.5263391579069432 121.31840406006756 0 0 0
284 2 -0.1214885851200245 -2.5229480121628263 2.331674214217897 121.36096551139234 0 0 0
285 2 -0.1170887899906821 -1.662914223117609 0.3090719717065591 120.69972397974242 0 0 0
272 2 -0.1192139800888528 0.6889708110084456 0.514951781175172 117.38010120891131 0 0 0
271 1 0.1253202070683329 0.00700806889047767 1.641517709977371 116.90578398028427 0 0 0
267 2 -0.1243399660028064 -1.8683300503679996 -0.2194786229404535 116.90486821863396 0 0 0
273 2 -0.1260571723741534 0.892044490588157 2.6390903849982137 116.69007421903353 0 0 0
304 1 -0.1908179079863482 0.1389234393453722 1.1594812319405556 129.76307733396425 0 0 0
305 3 0.1726159603295365 1.200945869159423 1.0486232677107155 129.58481347514544 0 0 0
290 2 -0.1307730207145876 -2.389621685459105 2.5910047112266876 123.87010845430983 0 0 0
292 1 -0.178363041652814 -1.1814190393279085 1.1152505366543317 125.34037511728086 0 0 0
293 3 0.1947357919612026 -2.0180767493291802 1.0829250817396336 125.98296588250915 0 0 0
294 3 0.1851052428539653 -0.6541005301827831 0.1994341207184176 125.35111138543468 0 0 0
295 1 0.08133927178798815 -0.23053579394367096 2.2157558193462843 125.86256299794842 0 0 0
296 2 -0.1341310862957253 0.7794758256697385 2.478667725491388 124.94103604579186 0 0 0
297 2 -0.133751020463287 -0.9159246358068787 -2.5557632953993075 125.99261327259562 0 1 0
298 1 -0.1865676304123017 0.4009028144292448 1.7765253679043318 127.2406060550367 0 0 0
299 3 0.173807378301814 1.1577028375631335 0.9220409074169789 127.15786200872685 0 0 0
300 3 0.1851114995256815 0.9542870647043826 2.6531734801586597 127.59425946897663 0 0 0
301 1 0.07594989744757279 -0.5864154194188622 1.433044728946054 128.37938838966488 0 0 0
302 2 -0.1338441379111879 -1.470240301634484 2.5190027059427575 128.55786363727705 0 0 0
303 2 -0.1353138134457461 -1.3998009209968618 0.32022410384421107 127.98432212839766 0 0 0
291 2 -0.1301128251688751 3.2942070193173616 0.4057438895669576 123.730358054716 -1 0 0
289 1 0.08886884056915177 -1.7581335917314171 1.3355486174654447 123.92202551774338 0 0 0
307 1 0.0942551571383605 -0.24299486789443359 -0.029254115127166358 130.66586871675267 0 0 0
308 2 -0.1300114813249661 -1.6287117351543012 -0.03785449326594348 130.75833078522544 0 0 0
320 2 -0.1239903331429551 -1.8854778188852914 -0.759207811367296 135.73461855185818 0 0 0
310 1 -0.1847451756338999 0.4297830457842844 -0.008045928151014348 132.0695691940939 0 0 0
311 3 0.196899706591902 1.3652217115573162 -0.4612960860883817 132.02723795048138 0 0 0
312 3 0.1874508261573 0.6992269966506073 0.9822809850563061 132.24796000075045 0 0 0
313 1 0.1226024342929245 -0.4454065628598678 -0.5398555958085876 133.2977248068652 0 0 0
314 2 -0.1216430991926482 -1.3316799592894932 0.47881677439166426 133.59376966212108 0 0 0
315 2 -0.1233979886655589 -1.198421960863222 -1.6273945331960027 132.80604222571645 0 0 0
316 1 -0.05857542442850353 0.27974352265618263 -0.9263956795777935 134.60689387618197 0 0 0
317 2 -0.1195957909053212 1.3986890990190926 -1.9381122926313075 134.36544016736866 0 0 0
318 3 0.1934432175864786 0.7079319732146474 -0.022613325456848354 134.98553289082417 0 0 0
319 1 0.1235983758942907 -0.7349970064188085 -1.5169965155039984 135.66888933287112 0 0 0
306 3 0.1887007803484352 0.04962371284014511 2.0617704025143744 130.31487193018188 0 0 0
321 2 -0.1200675569806363 -1.1299618876722604 -2.8123125436182645 135.3290568889925 0 0 0
309 2 -0.1340404885021726 0.14628127290690607 -1.2002019822823955 130.0293267183119 0 0 0
325 1 0.09900654243702928 -0.14368890561052972 -2.6862883256941066 138.1003681816946 0 0 0
326 2 -0.1251687574528318 -1.482954447706026 -2.986945702945526 138.41557648195663 0 0 0
327 2 -0.1259685782299748 0.37477344973751237 2.163509361739228 137.50198373897035 0 -1 0
328 1 -0.1783319366486623 0.6159132712509545 -2.3701538393287307 139.46864524148793 0 0 0
329 3 0.2093103279640309 0.4750006687971502 2.743389010680487 140.01276438351334 0 -1 0
330 3 0.1899627501981634 1.6525277015737543 -2.3398043573772913 139.23420759312984 0 0 0
331 1 0.08785324047122611 0.2162095532358279 -1.2336878589313798 140.4177360454969 0 0 0
332 2 -0.1292546705444775 -0.683732641099599 -0.42144839365976594 139.77080807938117 0 0 0
333 2 -0.1305092097504875 -0.4273386975236195 -1.7753052363897088 141.5224697165991 0 0 0
334 1 -0.06248426934130718 1.4798041434543365 -0.37663434091807346 140.8475711264456 0 0 0
335 3 0.1825324559194993 2.2246489684941175 -1.0369019165490834 141.22652003030976 0 0 0
336 2 -0.128126013208105 2.10783754967825 0.26656562006424167 139.73134638183603 0 0 0
337 1 0.1034181783514088 1.295468557638762 0.6995992195763883 142.02834583784917 0 0 0
338 2 -0.1303375322863575 2.227860118666111 1.7015601853019873 141.98386359436904 0 0 0
339 2 -0.1307775939666938 0.02572435803030615 1.3488521400272604 141.96139033586428 0 0 0
322 1 -0.1684642411868281 -0.04467720898373084 -1.528432557647605 137.07078203793748 0 0 0