LAMMPS data file via write_data, version 2 Aug 2023, timestep = 40000, units = real

1152 atoms
3 atom types

-0.7478826321312901 3.6988826321312898 xlo xhi
-2.1395077687502306 6.008507768750232 ylo yhi
-7.217880985347151 253.90948298648618 zlo zhi

Masses

1 12.0107
2 18.998404
3 1.00794

Atoms # charge

1 1 0.06891414061609251 -0.026829748136272036 -0.038816093832949594 -6.512042778180647 0 0 0
2 2 -0.1470563371275476 3.589575234478091 1.1557309200053063 -6.500150185636582 -1 0 0
3 2 -0.1516059911540538 3.529580721540646 -1.0682860472178652 -6.457619749098774 -1 0 0
4 1 -0.1534954887239344 0.7398804828653671 -0.013547516159979178 -5.196104432861333 0 0 0
5 3 0.1836457782440716 1.351024602076352 -0.9243530195042564 -5.134475745152956 0 0 0
6 3 0.1924016779424639 1.4167742593283736 0.8255897178749803 -5.239947191220622 0 0 0
7 1 0.08430315768109911 -0.012932430520898763 -0.07207416750037199 -3.78853813079456 0 0 0
8 2 -0.1490410646720121 3.602006488366892 1.0477830869205658 -3.7748894314616566 -1 0 0
9 2 -0.1500328674955403 3.5767600045669745 -1.137865582281522 -3.8680360076423193 -1 0 0
10 1 -0.153932233406053 0.7482071861551496 -0.20930942633748373 -2.4559855614610653 0 0 0
11 3 0.1916483643073932 1.2915137400906116 -1.088452466981373 -2.4482114436805995 0 0 0
12 3 0.1910741169122759 1.4178184791559065 0.6227978807697823 -2.375911175741284 0 0 0
13 1 0.07954884199578026 -0.0023159594985013854 -0.24809960586501423 -1.0491177618836058 0 0 0
14 2 -0.1495447840986052 3.5908384794689514 0.8245197271081155 -1.0068356264398801 -1 0 0
15 2 -0.1512720290120156 3.6157938377375043 -1.3499886330678763 -1.062382640027164 -1 0 0
16 1 -0.155446062497659 0.8592384179178738 -0.2811212333859854 0.246535484176734 0 0 0
17 3 0.1867207017180719 1.4663909695514037 -1.144376912936426 0.18141334084100347 0 0 0
18 3 0.1925714350050347 1.508419722010255 0.5929701317158962 0.27699252371139327 0 0 0
577 1 0.07518196626499056 2.2503303484758774 3.9644611308901414 -6.412154638052984 0 0 0
578 2 -0.1516884006470077 1.3215891525487726 4.989909087853506 -6.273758267391983 0 0 0
579 2 -0.1470898237480894 1.5077261525513768 2.749485124253524 -6.52036483650372 0 0 0
580 1 -0.159990502386692 3.0553765847124086 3.8949446675400647 -5.087575249882571 0 0 0
581 3 0.1925619747629476 3.678128664538936 3.0854877809482835 -5.0702380099236555 0 0 0
582 3 0.1856492205283812 3.697541478961199 4.719950611870158 -5.109491876670575 0 0 0
583 1 0.08712481843911744 2.2871363133245803 3.8270927238470422 -3.7074098082403983 0 0 0
584 2 -0.1503722847644775 1.540752842704011 4.982599982284666 -3.689617962507695 0 0 0
585 2 -0.1494647385017956 1.3832904270080495 2.748900199746502 -3.7041362995700986 0 0 0
586 1 -0.1518152380636559 3.087935743148398 3.7725299651187187 -2.3721868529658394 0 0 0
587 3 0.1897300172771296 3.682179188049684 2.8638046690948595 -2.2519619172118057 0 0 0
588 3 0.1892212740845594 -0.6531108909383692 4.55793818215364 -2.385130095105583 1 0 0
589 1 0.08115333648290539 2.261875613090026 3.9373284108841613 -1.039072350685605 0 0 0
590 2 -0.1518054389673331 1.408170708996384 5.063342982186764 -1.0805355924588067 0 0 0
591 2 -0.1502247671691652 1.3977782874608784 2.824103072757026 -0.9695413668336403 0 0 0
592 1 -0.1521501416976585 3.0758084196453774 3.986546332197517 0.3299292247633723 0 0 0
593 3 0.1898172048275781 -0.6965918482617226 3.1547591603928247 0.2370479449002456 1 0 0
594 3 0.1863026716377215 3.684407311399431 4.921833976539448 0.4463407582150767 0 0 0
19 1 0.08579538300992112 0.03966977681333239 -0.32211073562481807 1.6010231092277714 0 0 0
20 2 -0.1483628276414245 -0.7478361899917729 0.7440071462142472 1.6052605976800098 0 0 0
21 2 -0.1534601572445791 3.6856414955520123 -1.4217035467864947 1.5738715604501614 -1 0 0
22 1 -0.1419349622275229 0.7655361073541722 -0.3680022032862871 2.965945568123619 0 0 0
23 3 0.1939036777821958 1.3842124060913714 -1.272792654568601 3.019948755546624 0 0 0
24 3 0.2018794957655438 1.4274189537868471 0.47132451690334554 3.058625031567191 0 0 0
25 1 0.1137977177486489 -0.044213218722515824 -0.40436183877075327 4.29649699195736 0 0 0
26 2 -0.1424354020170897 3.51272797114553 0.6314140010328333 4.229939570451442 -1 0 0
27 2 -0.1472595369371346 3.613394730810681 -1.5148026559871086 4.223104252042404 -1 0 0
28 1 -0.009599817649628995 0.689564470547444 -0.3389651243164664 5.751896072115441 0 0 0
29 2 -0.1453800731160222 1.7404125331338705 -1.2776587055938413 5.8640465669121 0 0 0
30 3 0.2084237775600865 1.217372187019969 0.5608713722737786 5.736966090328261 0 0 0
31 1 0.108763275160921 -0.15518833877433547 -0.3263272125910972 7.109731154022697 0 0 0
32 2 -0.1459374332849854 3.3734289456256485 0.6820339472365067 6.993278944648877 -1 0 0
33 2 -0.1479829512928081 3.6279961289874025 -1.5234472571393978 7.258362769912045 -1 0 0
34 1 -0.1474189982696685 0.7022421110062174 -0.16488577541559657 8.384656482311323 0 0 0
35 3 0.2010029059231891 1.3625504761544494 -1.0161609994404033 8.337560364462323 0 0 0
36 3 0.1933690262897431 1.2765810118134824 0.7378756391901042 8.181891853082192 0 0 0
595 1 0.07969130403284749 2.2484459439019444 3.79040094063227 1.646690496274422 0 0 0
596 2 -0.1525655228989756 1.2499413159421113 4.793993291890403 1.616550701175207 0 0 0
597 2 -0.1479226907368733 1.5828558962775263 2.5588865485161287 1.56152151620965 0 0 0
598 1 -0.1455346353821937 2.8779012558558037 3.8734614604483397 3.080249379940364 0 0 0
599 3 0.20664601996282 3.634225797489467 3.1112049592888695 3.050812558212346 0 0 0
600 3 0.1912672132223942 3.3874299554206955 4.806706790745337 3.198647154429988 0 0 0
601 1 0.1240137662028458 2.078314256197387 3.7449769155742905 4.356090144856161 0 0 0
602 2 -0.1457953820070375 1.0240420917752107 4.622403642330131 4.272731262019075 0 0 0
603 2 -0.1404523520057907 1.55569291897588 2.4261481564021796 4.322014293551506 0 0 0
604 1 -0.002396626518992865 2.8709358614747074 3.9010374206848786 5.782812756787889 0 0 0
605 2 -0.1405120044564532 -0.5290156636656055 2.923725446433725 5.774863234232656 1 0 0
606 3 0.2041609041099164 3.272357755890253 4.8634547793218985 5.880122572877452 0 0 0
607 1 0.1100156374204504 2.124265860899027 3.802296880926278 7.164469797024905 0 0 0
608 2 -0.14719362108321 1.1456721416486384 4.7477645287164165 7.205691509882852 0 0 0
609 2 -0.145741482452954 1.442602341358941 2.5650399546892126 7.233255189973116 0 0 0
610 1 -0.1406821734759156 2.9096294683277497 3.8949017586438313 8.479721581391562 0 0 0
611 3 0.1964608474016517 3.47132109470604 2.9250902480925296 8.49097437882112 0 0 0
612 3 0.1964286181730884 3.6384046354707635 4.747737255838758 8.389790007791813 0 0 0
37 1 0.08361301051905048 -0.05845129403558502 -0.143268703900852 9.793824961077672 0 0 0
38 2 -0.1523253964635069 3.4863957037529154 0.9126559596962074 9.82756925654936 -1 0 0
39 2 -0.1509218445662976 3.6684980335387225 -1.289095383280479 9.861978251658826 -1 0 0
40 1 -0.1401213468838724 0.7877086256326489 -0.03819270313885914 11.112678640986076 0 0 0
41 3 0.1990163438890134 1.4596405370771923 -0.9438061844303298 11.101629837582891 0 0 0
42 3 0.1968388237419238 1.4389008536606314 0.8431808703440637 11.06450970360028 0 0 0
43 1 0.1185825333020399 0.010734858685849336 0.06478706308595017 12.433067629798508 0 0 0
44 2 -0.1452007088546718 3.6415750613590676 1.2508160113967186 12.36037150080531 -1 0 0
45 2 -0.1446475827552894 3.5636706896451695 -0.9923497435864617 12.43277133792322 -1 0 0
46 1 0.005439232673466306 0.7818458009180755 0.05133566767705178 13.865310250282576 0 0 0
47 3 0.2084122831948256 1.2603745450147423 -0.9425030754158574 13.77664213882445 0 0 0
48 2 -0.1407559599027697 1.8236707981872362 1.1027713686143983 13.876522651021766 0 0 0
49 1 0.1227476886119887 0.007325877824138738 0.07212717052655337 15.233539170597904 0 0 0
50 2 -0.1440175811916557 -0.6187407727734209 1.2890606062020336 15.372897794748571 0 0 0
51 2 -0.1446684797258638 3.4367763501834343 -0.88886185054368 15.154301705258934 -1 0 0
52 1 -0.1468367604413 0.7689869556480093 -0.22344021711050965 16.557099439935456 0 0 0
53 3 0.1951134749107115 1.2603117697950257 -1.15943303503854 16.4550817682063 0 0 0
54 3 0.1979828131193397 1.625264558757963 0.43745048718748825 16.644126503825646 0 0 0
613 1 0.08109526454777136 2.154346919029781 3.9836500369603254 9.831317795301072 0 0 0
614 2 -0.1509430790419689 1.428037301956083 5.225146780848909 9.883555188551917 0 0 0
615 2 -0.1520462417207133 1.2084383049469134 2.98136255042579 9.79096870618142 0 0 0
616 1 -0.1516243699895875 2.9815665160133045 3.9485774620950833 11.170173889970734 0 0 0
617 3 0.1946988499957796 3.553982105281473 3.050146082128098 11.229570994199062 0 0 0
618 3 0.2032966924125168 3.662126949817112 4.735436005263558 11.12491085442771 0 0 0
619 1 0.1247672161130046 2.124203990428434 4.16591203352221 12.443082332251596 0 0 0
620 2 -0.1453462584485584 1.5484450887544132 5.415918623101254 12.342532437468623 0 0 0
621 2 -0.1457776608361624 1.0707606653570707 3.2473319103114404 12.454856863011589 0 0 0
622 1 -0.001221166010895967 2.921317435580886 4.117725492719024 13.85765589190969 0 0 0
623 3 0.2090871767925555 3.5474192610556816 3.2543158602580267 13.906282128638939 0 0 0
624 2 -0.1422882421695725 -0.45288732189890574 5.083737920754407 13.877430605516064 1 0 0
625 1 0.1178336355451334 2.1597381954437886 4.1511427336140825 15.247072801303666 0 0 0
626 2 -0.145930301081597 1.4807218814045529 5.331926590457236 15.369025848639058 0 0 0
627 2 -0.1446647568236256 1.1937029640626637 3.1574317913909624 15.239007705234048 0 0 0
628 1 -0.1547859414518004 2.9876736876938654 4.019227627403003 16.54124957433804 0 0 0
629 3 0.1967126171835403 3.549083586098158 3.117923362029365 16.53262887988626 0 0 0
630 3 0.1983343309760354 3.683741439795795 4.781921756645957 16.525697475064188 0 0 0
55 1 0.08006352706138363 -0.0025161786146530307 -0.18485460251065522 17.90395957432494 0 0 0
56 2 -0.1508551713648118 3.675331830696269 0.9406690972158289 17.904634967028002 -1 0 0
57 2 -0.1509201615428548 3.5687602964395735 -1.274115777212977 17.977223567617724 -1 0 0
58 1 -0.1472751817279325 0.781453108008491 -0.12617410460710854 19.344829931972335 0 0 0
59 3 0.2060252644891132 1.4565918558057152 -0.9094497269267363 19.332822856313477 0 0 0
60 3 0.1952600801369051 1.22938173969017 0.880249197335734 19.4807991036298 0 0 0
61 1 0.117689859173566 -0.047596574631409205 -0.24718671681417081 20.57542761185807 0 0 0
62 2 -0.145713588439023 3.39219015291712 0.6748184089826923 20.49980796149545 -1 0 0
63 2 -0.1432250535092765 -0.6503942943947921 -1.4854754532086771 20.5341495112018 0 0 0
64 1 -0.00224571307078502 0.7331036729870215 -0.10532331582808752 22.045851321352803 0 0 0
65 2 -0.1395677104025336 1.7413239776235865 -1.074182705845538 22.149986569401072 0 0 0
66 3 0.2078342218603466 1.1694560812257726 0.8209636572242265 22.019824104961994 0 0 0
67 1 0.1210823535658092 -0.09127020281791487 -0.15744328504852967 23.36316114624227 0 0 0
68 2 -0.1449771329249862 3.3669833284525064 0.841911365068694 23.446714735928712 -1 0 0
69 2 -0.1430787522428578 3.6703437782081476 -1.3745225054182546 23.45713473913276 -1 0 0
70 1 -0.1499889048828292 0.64700742841082 0.04201053162379642 24.716694935882572 0 0 0
71 3 0.2020533768401435 1.5236578569170862 -0.5841123218782103 24.815550594742234 0 0 0
72 3 0.1963216307890928 0.8636946631424844 1.0243524499365595 24.68773886299473 0 0 0
631 1 0.08022710520798379 2.198707809147331 4.0352815018512285 17.886670743375653 0 0 0
632 2 -0.1513975927521423 1.4489508492557706 5.166951422091067 18.004603003734143 0 0 0
633 2 -0.1509974318234741 1.2704579035805983 2.9582535069719604 17.90990053101602 0 0 0
634 1 -0.1479995017998605 3.016780883458556 3.9302925613786037 19.22266314024667 0 0 0
635 3 0.1945714996459361 3.650085704017365 3.0320596088730873 19.163427320849955 0 0 0
636 3 0.1979702159487371 3.691672886474585 4.712519371455836 19.276467580397085 0 0 0
637 1 0.1203652777552635 2.291438200418613 3.8954069602895665 20.575917215647085 0 0 0
638 2 -0.1436062039697924 1.3835770091471327 4.935400304730015 20.601133382662937 0 0 0
639 2 -0.1456471094606832 1.545629415385402 2.7450997379274265 20.533485371488172 0 0 0
640 1 0.003702508556975079 3.0827252065919803 3.898755586189888 21.984415738454285 0 0 0
641 2 -0.1423261788496559 -0.4588570843789878 2.8083389738186373 21.917362061809154 1 0 0
642 3 0.209645672692949 3.5537342426363363 4.886416249778695 22.051999269469476 0 0 0
643 1 0.1134396221745238 2.3144780918048333 3.8754246675446913 23.391815332470674 0 0 0
644 2 -0.1431281711436699 1.261476604492517 4.80086586367933 23.395597046410685 0 0 0
645 2 -0.1447902059072247 1.665144120181922 2.6139758323838036 23.465982500556315 0 0 0
646 1 -0.1482455243397315 3.0258180146918905 4.123534413135125 24.711796783476885 0 0 0
647 3 0.1961215117608822 -0.6377012126809056 3.3429304837494573 24.81199025928681 1 0 0
648 3 0.2006362192522375 3.3917000656757263 5.059017982187532 24.54912489707016 0 0 0
73 1 0.06867600855570957 -0.1890827509763714 0.0024484232358719105 26.06538694823014 0 0 0
74 2 -0.1498588795796704 3.4652391057373517 1.166131014820952 26.075477122388143 -1 0 0
75 2 -0.1505230937796165 3.3641426641189653 -1.0979921075038408 26.01868384529085 -1 0 0
76 1 -0.1476093385158856 0.5428400564649436 -0.019095443233558385 27.46158284842668 0 0 0
77 3 0.1940738465238119 0.9865886583281434 -0.9528979549023087 27.549236512931046 0 0 0
78 3 0.1990988177284831 1.3899355553849047 0.703721578107432 27.364585210120815 0 0 0
79 1 0.1218307739592099 -0.21074675282803113 0.2285253882987881 28.8205341199591 0 0 0
80 2 -0.1415104565826527 -0.707670770912842 1.5056597869392596 28.759432682879954 0 0 0
81 2 -0.1447919447289445 3.1562346796307157 -0.6296806921229308 28.835712975895802 -1 0 0
82 1 0.005646711083328598 0.5670561778320125 0.10687576661028064 30.156146296172103 0 0 0
83 3 0.2055212070950281 1.0197895463120619 -0.8787655908035108 30.143997829852957 0 0 0
84 2 -0.1382311403036293 1.763962614932567 0.9606129347587506 30.15332292875653 0 0 0
85 1 0.1206030878273265 -0.17325275929254014 0.10998868447503796 31.60536930769466 0 0 0
86 2 -0.1412161392139109 3.662035300282777 1.3528284911886708 31.701869088789145 -1 0 0
87 2 -0.1462420976104069 3.3011243785176516 -0.8471099905656199 31.68904334615734 -1 0 0
88 1 -0.1444209427676638 0.6433259572278254 0.006701712119693948 32.938661000901654 0 0 0
89 3 0.1937320936771571 1.2243563361816987 -0.8534217401099575 32.87829940432448 0 0 0
90 3 0.2009340869198354 1.4037695474697727 0.797716920063186 32.96226759560236 0 0 0
649 1 0.07999463496463745 2.2357891356118507 4.158362542207533 26.093339412529332 0 0 0
650 2 -0.1508759379442035 1.5208051484820997 5.320685951279958 26.056024677638604 0 0 0
651 2 -0.1503216613550556 1.3196081208627648 3.101581044634468 26.10202027270082 0 0 0
652 1 -0.1505026445702502 3.0172942879422053 4.123053426497398 27.488210339870356 0 0 0
653 3 0.1976732806470561 3.6292048274153847 3.2479153781118484 27.537767972212116 0 0 0
654 3 0.1947742991544761 -0.7463705234805729 4.896261622543218 27.448904434978658 1 0 0
655 1 0.1159872212038746 2.2161832417703597 4.290337690506851 28.78797207446435 0 0 0
656 2 -0.1465373163394665 1.4501130210086686 5.464048625773347 28.62317247624207 0 0 0
657 2 -0.142565245717206 1.2347273174881532 3.264546121726208 28.812193318799757 0 0 0
658 1 -0.005546439271303726 2.9576053935967788 4.337735536517303 30.20450601727984 0 0 0
659 3 0.2108860988283942 3.53818424434904 3.473621910729337 30.227961221721856 0 0 0
660 2 -0.1436071422365184 -0.4230134196207321 5.295139375321813 30.24734974774747 1 0 0
661 1 0.1156865196120676 2.2139231709111695 4.26796299449159 31.636132755859975 0 0 0
662 2 -0.1469289252174782 1.4747381915260376 5.396033845432111 31.76445285742114 0 0 0
663 2 -0.1415378730363947 1.2816693524396299 3.216036088669955 31.571123897095603 0 0 0
664 1 -0.1554417126407165 2.977988918123157 4.093881315479017 32.92543712387485 0 0 0
665 3 0.1999796023468188 3.514681438253403 3.2533532197857884 32.95095120688074 0 0 0
666 3 0.1962592160914494 3.6170934153333194 4.96561659258979 32.91393897211994 0 0 0
91 1 0.07463092889117783 -0.0678134316281066 0.07192223313685497 34.34932393340133 0 0 0
92 2 -0.1487617458487123 -0.7423356007791826 1.2656791885681073 34.40471583808863 0 0 0
93 2 -0.1517327510659404 3.433602940845299 -0.9212309310657196 34.29706643316402 -1 0 0
94 1 -0.1525828078090684 0.7014705815263795 -0.03982665436170629 35.7376907182459 0 0 0
95 3 0.1973262872926442 1.195832795477988 -0.924118966415014 35.69558101408197 0 0 0
96 3 0.2014010532438125 1.387448213352 0.7203962126760537 35.76710757413318 0 0 0
97 1 0.1229275974778771 -0.034000616513773174 -0.23299112160514057 37.08465423038061 0 0 0
98 2 -0.1423143536024427 3.4201412498092685 0.6816023958078254 37.05641186257974 -1 0 0
99 2 -0.1450385307891636 -0.6059777280009511 -1.484497396455697 37.00498490981084 0 0 0
100 1 -0.002206192212194376 0.7293358079949599 -0.1630995106973021 38.51405060970289 0 0 0
101 2 -0.1417521760798284 1.8156161755989983 -1.2063238723472036 38.4406433363068 0 0 0
102 3 0.2107366412195104 1.240224889916423 0.7492544380464929 38.551849032054484 0 0 0
103 1 0.1154009100282124 -0.09226823757707936 -0.2888408222482013 39.84557890228186 0 0 0
104 2 -0.1436100427620078 3.282971253254968 0.6105400527087861 39.79872828704798 -1 0 0
105 2 -0.1462005355686689 -0.6678154549556332 -1.5909471222402791 39.88900438383942 0 0 0
106 1 -0.159983842083168 0.6847458302575911 -0.04632495061907349 41.13468563375475 0 0 0
107 3 0.1964185476368825 1.265579022753002 -0.8786985819066151 41.22288537527638 0 0 0
108 3 0.1984522720062653 1.3450288902607475 0.7521092110983716 41.05811759500173 0 0 0
667 1 0.0755495426802955 2.1400545181841797 4.181672907508112 34.31268979108226 0 0 0
668 2 -0.152506962839372 1.3465340263486016 5.345705626090023 34.271745724208884 0 0 0
669 2 -0.1494781747403188 1.282965013562237 3.1174933124497493 34.3201405029632 0 0 0
670 1 -0.1464082498058383 2.965436227024421 4.146725317522127 35.600687161875534 0 0 0
671 3 0.1998751255587082 3.6427519093280942 3.24675037853158 35.49799016212682 0 0 0
672 3 0.1951114337156806 3.5458935468150994 5.016213632347366 35.67787428831443 0 0 0
673 1 0.1245287505281254 2.1691301922741606 3.909496815973853 36.99102278758944 0 0 0
674 2 -0.1450042906628964 1.1171611301108668 4.763509172199753 37.06859885274363 0 0 0
675 2 -0.1426983765985497 1.626066762017182 2.639836638207237 36.839884649281814 0 0 0
676 1 -0.001226264126536526 2.9481167832052275 3.9327664812041254 38.326356633526586 0 0 0
677 2 -0.1396656187053999 -0.3614620275027777 2.972266700918688 38.31294259771778 1 0 0
678 3 0.2103968871098936 3.522140122855464 4.788079161228281 38.32863696338344 0 0 0
679 1 0.1256767945789001 2.1862755653179677 3.9431679030731415 39.71828277507417 0 0 0
680 2 -0.1455904106494558 1.190116352514307 4.892286014999947 39.71447047002449 0 0 0
681 2 -0.1432086155370683 1.588952387570437 2.6698162106544894 39.8370078262743 0 0 0
682 1 -0.1473287273536986 3.026687935466904 4.200782868421627 40.99681208294182 0 0 0
683 3 0.2002199119904264 3.692915046760248 3.380153005746215 41.041025479334365 0 0 0
684 3 0.1960923412497351 3.5765895284858455 5.1113263236196 40.99111121575272 0 0 0
109 1 0.07836974491567911 -0.1728138480771476 0.050252012491744935 42.50175532738271 0 0 0
110 2 -0.1487572262677571 3.539259445753216 1.2596556191341879 42.52068828686595 -1 0 0
111 2 -0.1521818044354412 3.3713566205011753 -0.9914172019275285 42.52978156859805 -1 0 0
112 1 -0.1506420729251794 0.6542135602890942 0.07550562426144225 43.847644422613975 0 0 0
113 3 0.193352831265083 1.2003177320270546 -0.8544782398773847 43.957246748422826 0 0 0
114 3 0.2060445701482753 1.3348566219584441 0.8756171581279637 43.82796924165533 0 0 0
115 1 0.131180557950696 -0.13206521626782441 0.17293261974232044 45.17250077785711 0 0 0
116 2 -0.1404201694975155 -0.7256455242276837 1.3803342159186807 45.249431265288194 0 0 0
117 2 -0.1467006400027736 3.2989462165819745 -0.7762335487368506 45.08756565564924 -1 0 0
118 1 0.005711938574050871 0.7251298048658408 -0.1211380179757997 46.52432010658965 0 0 0
119 3 0.2065229970395999 1.037405150310394 -1.1536492977815884 46.470460366358374 0 0 0
120 2 -0.1391330149304277 1.8757691111682018 0.6782517805661303 46.49939610876761 0 0 0
121 1 0.1329134489756617 -0.04619494574128369 0.10994565569236725 47.89230204384026 0 0 0
122 2 -0.142226572455352 -0.5583227264857441 1.370179797077944 47.93992623794064 0 0 0
123 2 -0.1473712024072099 3.335268543295644 -0.7534649760594867 48.00892094416017 -1 0 0
124 1 -0.1457177571749652 0.7944473043227256 -0.026995564818725448 49.18403076286288 0 0 0
125 3 0.1949780218296851 1.1497561493357675 -1.0074761186009953 49.16899183164813 0 0 0
126 3 0.2028335978246973 1.6552804840606279 0.6548341667323361 49.20419579954717 0 0 0
685 1 0.07531803594335382 2.29333622380458 4.140410618580289 42.3803766323068 0 0 0
686 2 -0.1534411932714908 1.463194853879036 5.195406387194015 42.445369529111034 0 0 0
687 2 -0.1504199109474361 1.4495307032420395 3.052458374931965 42.36010022569701 0 0 0
688 1 -0.148454301287177 3.1279250128327427 4.126483238018678 43.757936692275386 0 0 0
689 3 0.1975794735785279 -0.727264202764538 3.2837062277436333 43.75641606159546 1 0 0
690 3 0.1926238417023939 -0.5973360066983058 4.9365039697407225 43.72464109585364 1 0 0
691 1 0.1170234675959302 2.3031353649327295 4.199852616352611 45.0670693648308 0 0 0
692 2 -0.1483832961238739 1.4477236384741312 5.3227707963790785 44.969982206650634 0 0 0
693 2 -0.1423250166527862 1.4895854816468792 3.1109949178968224 45.08151886383942 0 0 0
694 1 -0.01126143377408436 2.9793494975514765 4.304549061463256 46.53086194253721 0 0 0
695 3 0.2098938958367143 3.634656825597345 3.539693343098347 46.58140858925309 0 0 0
696 2 -0.1457748030250185 -0.5270893885574579 5.479709482991661 46.52026464075656 1 0 0
697 1 0.1100353810515737 2.2020593522945733 4.233558610712187 47.89593961431932 0 0 0
698 2 -0.1486317628605891 1.4771242051175455 5.389211535796001 48.05230098280681 0 0 0
699 2 -0.143236602567738 1.2415110726918637 3.245542221161113 47.84849160775355 0 0 0
700 1 -0.1485862126607416 3.0076859609399444 4.106793583985561 49.22399429019453 0 0 0
701 3 0.1998245986263026 3.4277368513619466 3.112244136859135 49.1634476560119 0 0 0
702 3 0.1970721616219019 -0.6696505838638671 4.839882942730571 49.227262111483 1 0 0
127 1 0.07490257174304855 -0.022442781633529862 0.11530068516663183 50.50324506479392 0 0 0
128 2 -0.1505385698004323 3.6750808616292217 1.3129674541197645 50.397700483490816 -1 0 0
129 2 -0.1521825510220984 3.5180820025975956 -0.9540580506115182 50.591406038328444 -1 0 0
130 1 -0.1514176775846008 0.7495255855140388 0.1707314621408349 51.872949002054476 0 0 0
131 3 0.1971626068413629 1.4141577072324814 -0.6503033552998403 51.81374516423766 0 0 0
132 3 0.1979264345285783 1.3555684424703323 0.9939697433588188 51.814043363220286 0 0 0
133 1 0.1237546700143892 -0.09915004198675492 -0.02256022554942616 53.152897403867584 0 0 0
134 2 -0.1448383663465558 3.342109852700502 0.9359772974363798 53.14389103514154 -1 0 0
135 2 -0.1464382818546955 3.6617059514724426 -1.246658298626265 53.08887564733602 -1 0 0
136 1 0.004036109747826205 0.6694998760712927 0.03454335522004515 54.61116125995216 0 0 0
137 2 -0.1432815825487024 1.84031952142041 -0.7568012896221272 54.58677534176896 0 0 0
138 3 0.2108998286971419 1.1073074983358258 1.0377118705178168 54.58220364722465 0 0 0
139 1 0.1150955525179126 -0.04640107310847286 -0.10181524099420258 56.00908172076675 0 0 0
140 2 -0.1432793784862135 3.4501364626258404 0.8984150123780443 56.075648205054414 -1 0 0
141 2 -0.1463046117153639 -0.6665508706859282 -1.3312087720260672 56.06347039300555 0 0 0
142 1 -0.1508363541329567 0.7903598003277799 -0.040463517206666744 57.26971353593855 0 0 0
143 3 0.1969604002612352 1.360654014578484 -0.8866201586873483 57.23753157938695 0 0 0
144 3 0.2040149625408086 1.410820243970516 0.7681092114112769 57.143466688019785 0 0 0
703 1 0.08292203330085017 2.1640953676430517 4.116081728574538 50.5318196398172 0 0 0
704 2 -0.1525941355861916 1.321128072415736 5.213824705065701 50.47201358321264 0 0 0
705 2 -0.1509045910080535 1.3208195670156533 3.0049813536931653 50.55462991149271 0 0 0
706 1 -0.1426379428651613 2.936181424417318 4.213088297781673 51.933120532465665 0 0 0
707 3 0.1995013912300878 -0.7337925857238581 3.3792594910695133 51.98470021838494 1 0 0
708 3 0.1959832746924026 3.499808025307093 5.1310183400477625 52.027647704609116 0 0 0
709 1 0.1130840850876566 2.136430460583087 4.153613196427904 53.207446106191924 0 0 0
710 2 -0.1460270011556771 1.2785338607560197 5.267531395858709 53.31562420781814 0 0 0
711 2 -0.1449432846361997 1.290036380021688 3.040082453308485 53.09818967289554 0 0 0
712 1 -0.006372429710373299 2.8983006868358343 4.057995948113211 54.65216622334663 0 0 0
713 2 -0.1414656504955883 -0.6530812349070149 2.9431418526586333 54.58512258350916 1 0 0
714 3 0.2039172717338994 3.4348037969066905 4.9529648070116705 54.70165115594488 0 0 0
715 1 0.1144432807764785 2.088784366771092 3.9781800065397688 56.013218668499576 0 0 0
716 2 -0.1463812442969947 1.052623868033926 4.944220262742099 55.98568542723564 0 0 0
717 2 -0.1427223066337374 1.426529286540668 2.727970474512942 56.032764284061294 0 0 0
718 1 -0.1474579513606964 2.8879349547243374 4.157665634809443 57.28840155710702 0 0 0
719 3 0.2038280837729339 3.645954459771051 3.392419750332115 57.264252188627395 0 0 0
720 3 0.1889081550499108 3.4227494561781473 5.124132362216514 57.197062849974515 0 0 0
145 1 0.08495364437606855 0.05802514707039497 0.059063188012625556 58.6788260321578 0 0 0
146 2 -0.1480580717095858 -0.5779034725892912 1.270357781586279 58.68837613801483 0 0 0
147 2 -0.1513405045579129 3.465363739230341 -0.930095258441284 58.68763094105179 -1 0 0
148 1 -0.1524860064431574 0.8130934314367355 -0.0914142950375112 60.05331064435511 0 0 0
149 3 0.1882284563182689 1.3839976672856613 -1.0005147243413124 59.99698522213663 0 0 0
150 3 0.191961936895062 1.5288544552001495 0.7423660607637954 60.117337059986696 0 0 0
151 1 0.08295534868837187 0.02522559182086692 -0.04741307247517845 61.36897759027653 0 0 0
152 2 -0.1498358349964044 3.6510577378634554 1.0968549981488507 61.35831717184226 -1 0 0
153 2 -0.1490345413280835 3.6280693722597164 -1.1885872067776893 61.359311859426924 -1 0 0
154 1 -0.1544635486304094 0.7982112040237606 -0.07277377590812684 62.774153919665025 0 0 0
155 3 0.1951268579399532 1.5166910904803537 -0.8190722597847069 62.8082539609245 0 0 0
156 3 0.1898521366252081 1.1993090828054536 0.9025779572804367 62.79399164365654 0 0 0
157 1 0.07736079643540188 -0.08377398318875529 -0.12338993206969606 64.07996360005 0 0 0
158 2 -0.1509621616426298 3.529062909803674 0.9526767120528303 64.04205659562155 -1 0 0
159 2 -0.1490364419367141 3.6061605252100843 -1.2747957277748903 64.04026696972451 -1 0 0
160 1 -0.1569444234587887 0.6774700224464338 -0.1424342828607208 65.47055376002886 0 0 0
161 3 0.1893485385179915 1.3333480034826066 -1.0074276441992474 65.49828754831228 0 0 0
162 3 0.1850178119929905 1.2553075711894754 0.7576794800110562 65.43802108700685 0 0 0
721 1 0.08042095242391549 2.215074027564858 4.05336666079655 58.70796282941822 0 0 0
722 2 -0.1518596112544973 1.2756738498917803 5.047119126021493 58.73926155666706 0 0 0
723 2 -0.1484817133778418 1.5105023363892172 2.844486998183342 58.71576082390233 0 0 0
724 1 -0.1569278257186217 3.0860758806416757 4.118162176877731 59.98871672932509 0 0 0
725 3 0.19296054190033 3.6386242250032206 3.217309366082823 60.026596506926126 0 0 0
726 3 0.1878983933647676 -0.6682125273379343 4.933101800489593 59.891817394604516 1 0 0
727 1 0.08462217275273352 2.2971954276137105 4.072673567942427 61.38660974147453 0 0 0
728 2 -0.1488282465700531 1.5248894653567855 5.21221557229272 61.45306555807382 0 0 0
729 2 -0.149818270226298 1.381588626470585 2.974201317999963 61.38038715368059 0 0 0
730 1 -0.1501434503193344 3.0265642582825016 3.9795471961606355 62.76508703232861 0 0 0
731 3 0.1897619758904437 3.583652107057534 3.092817734891865 62.67644545474941 0 0 0
732 3 0.1942318249670754 3.67832228023123 4.804279302072761 62.85022134759916 0 0 0
733 1 0.08166139018731734 2.1725431976004366 3.8875399215759554 64.09064304183046 0 0 0
734 2 -0.1493445026863986 1.2783913759042167 4.900152675269659 64.06241321534719 0 0 0
735 2 -0.1514979391787833 1.4525544265251447 2.727973936930412 64.07765844099634 0 0 0
736 1 -0.1562159739493676 2.966805633709988 3.9651744604243113 65.47109929889672 0 0 0
737 3 0.1870040233974326 3.5071271477857726 3.062756329210276 65.51280258686755 0 0 0
738 3 0.1889429847677148 3.641571669339979 4.833243435122101 65.43825479719911 0 0 0
163 1 0.07663074821639701 -0.07729707736315006 -0.17810088972919957 66.83932848040763 0 0 0
164 2 -0.150159212928298 3.5127664603326707 0.8664916385134438 66.85103492644494 -1 0 0
165 2 -0.1506708656418624 3.5792101270963803 -1.308363189303576 66.85377374339016 -1 0 0
166 1 -0.1429217450382431 0.7018230615694301 -0.13641161088371678 68.23091031821855 0 0 0
167 3 0.1978604197701215 1.4835409045236854 -0.8786783554842776 68.24355350272425 0 0 0
168 3 0.1967634838679232 1.2390316220320583 0.8160211857752682 68.24086609274184 0 0 0
169 1 0.1233251878355872 0.0014532833618629004 -0.23562915956334796 69.57204942522847 0 0 0
170 2 -0.1424286299267009 3.457586261311304 0.7601811772865701 69.53054015687579 -1 0 0
171 2 -0.1429313292328217 -0.6612236934509084 -1.434651575781616 69.55106984996237 0 0 0
172 1 0.0008128048129371259 0.7244581660091043 -0.13102332268920902 71.05787882494822 0 0 0
173 2 -0.1406035932126667 1.8670539242592192 -0.952661495356246 71.0459767362494 0 0 0
174 3 0.2121651618885327 1.2847378671241643 0.747915940362557 71.0784543795513 0 0 0
175 1 0.1202044130947779 0.01232823670333738 -0.24701665166748854 72.46499989738702 0 0 0
176 2 -0.1453728438321211 3.4266153409396845 0.703342718577189 72.53211369597378 -1 0 0