LAMMPS data file via write_data, version 19 Nov 2024, timestep = 0, units = real

480 atoms
4 atom types

9.717836028766222 78.42419097122863 xlo xhi
4.996536376914468 11.003463623086175 ylo yhi
9.217168617824058 78.92485838217502 zlo zhi
0 0 0 xy xz yz

Masses

1 12.0107
2 1.00794
3 15.999
4 14.0067

Atoms # charge

266 2 0.144799103267561 14.43776980946781 8.592740907562096 37.86050011890127 0 0 0
265 2 0.1415825774422741 13.206423687517903 10.587106112838548 38.396427267452495 0 0 0
252 2 0.1445604881024997 11.77637154574379 6.250071375762317 38.48328725969705 0 1 0
258 1 -0.08629063469733 14.089366938258143 8.726213824950758 38.9506469530337 0 0 0
264 3 -0.4561631999355903 15.846812212355225 5.907965763159726 39.25262772198842 0 0 0
257 1 -0.08806036761738387 13.283593710958026 9.848733162801281 39.193238984191325 0 0 0
301 2 0.1945466909411691 15.593396171555904 9.525681731665308 40.21816509326672 0 -1 0
262 1 0.3788145128965967 15.0373588694967 6.381822830831994 39.99262508014131 0 0 0
259 1 -0.07867723525035547 14.412667457988444 7.754796542135129 39.97115511345119 0 0 0
256 1 0.01811804751738461 12.552165819745117 10.096535416087455 40.40582022995943 0 0 0
284 1 -0.08690741010369521 15.943430844389297 9.552671397543897 41.2682726942558 0 -1 0
260 1 -0.07935319879702084 12.725110263420515 9.105782072968305 41.45889121796992 0 0 0
267 2 0.1592286963920837 12.08830296273911 9.155543573230162 42.317482906641466 0 0 0
261 1 -0.03157407584816434 13.592304658869951 7.986009093553568 41.23757889228086 0 0 0
269 1 0.3863260715204959 13.639003410469712 6.692787225287743 42.031949269570724 0 0 0
268 3 -0.4449799126138121 13.086743394449428 6.598516836510955 43.10606743756572 0 0 0
263 4 -0.4259756075780687 14.619570290488113 5.728805819724457 41.34029333204854 0 0 0
286 1 0.1743657402803575 15.390709379664198 10.6041843003782 42.042924644155015 0 -1 0
242 1 -0.07643492090374956 10.688685637383365 5.183299730224454 41.643421626247886 0 1 0
288 1 -0.1029469338971923 15.734366920806451 10.631371580013262 43.40175893885555 0 -1 0
290 1 -0.1334430650701044 16.699846393784327 9.707864012167043 43.94600354724331 0 -1 0
283 1 -0.1468714418864072 16.888141423364964 8.617582971303754 41.77009672028133 0 -1 0
292 1 0.252218478285166 17.266696130828457 8.693297983805197 43.13892875755612 0 -1 0
241 1 0.01778717327467898 11.518967275590649 5.244003512383633 40.46610155779146 0 1 0
245 1 -0.09488253898932311 11.189469958947742 6.1630294922082305 39.406289477226956 0 1 0
246 1 -0.05221574934359283 10.221283777697282 7.246473514946177 39.603261841330735 0 1 0
282 2 0.1695965234161506 17.28455287405749 7.757656675501318 41.10968598789282 0 -1 0
250 2 0.1457089475403391 10.818111077189036 10.463735813358653 42.42222141645317 0 0 0
287 3 -0.4998732172156327 18.164412922774325 7.843557503392667 43.72814905864512 0 -1 0
289 2 0.1833432471587494 15.304693796943674 5.419276736573035 44.056184039222686 0 0 0
253 3 -0.4488488042345481 10.040963842399432 8.836222513071448 37.697764875914174 0 1 0
277 1 0.2264448777373231 21.810697695504526 7.074088453828063 41.66419730697858 0 -1 0
294 2 0.153338496152746 19.11447953067752 9.235352771609636 41.635908871854795 0 -1 0
274 1 0.2506255083987703 19.215222667936494 7.518026532505517 42.97880546719428 0 -1 0
295 1 -0.09236747080537058 25.08492920679135 9.864136635694042 41.266346299522354 0 -1 0
272 2 0.1433377336496931 21.954527490031804 5.328029244618267 42.9705487384201 0 -1 0
280 2 0.1752580235093028 25.13214270852283 6.542534719864227 39.444149828342375 0 -1 0
360 2 0.1411462322675063 23.17600592445439 9.31569126509822 42.126744955644554 0 -1 0
270 1 -0.1459640537359197 23.94748838807775 9.013411052049694 41.35761859187764 0 -1 0
299 2 0.1488232626843261 21.33765914706752 8.976155018837936 40.59107900261451 0 -1 0
273 1 -0.1539561374054473 19.738196430594 8.389349734782485 41.924130625572914 0 -1 0
276 1 -0.1373705179569423 21.270604937617144 6.173059295105887 42.635097221462 0 -1 0
275 1 -0.1448348608564595 20.054632170098767 6.407897419686741 43.336230764905984 0 -1 0
278 1 -0.1459459117698705 20.999905845184628 8.224475589193066 41.35431062222038 0 -1 0
297 2 0.1919486959519184 25.037225544368155 10.738570310086612 41.970676071340485 0 -1 0
300 1 -0.1250117573836728 25.106514500395214 7.483110015894615 39.944317759969834 0 -1 0
298 1 -0.09620807049504103 26.187514123673104 8.364737575701302 39.81200441111366 0 -1 0
249 1 0.2720553421293982 23.865613824565123 7.721571261854109 40.67438448246146 0 -1 0
296 1 0.1811994931811523 26.19570851092989 9.679145133481978 40.41872216028174 0 -1 0
281 3 -0.505116894139708 23.00920183951513 6.787596526847403 40.9707277422706 0 -1 0
291 2 0.1648016599972677 16.938805391726824 9.785013813844444 44.96152118752849 0 -1 0
293 2 0.1560443955720945 19.723931302555364 5.760636613408419 44.13296698007991 0 -1 0
57 2 0.1997725689259643 43.996640463496796 10.157026594152434 24.929801662920205 0 0 0
76 3 -0.4505613464495261 42.593578475831535 8.412916195879149 25.55720261116606 0 0 0
68 1 0.3882442676646825 43.256990660195335 7.731433245761492 26.274122450718004 0 0 0
72 2 0.1459491299641157 40.747352301397385 6.086283971479832 26.46869223934966 0 0 0
87 2 0.1183940837702525 40.55480641183851 8.653681509141316 29.374803963710473 0 -1 0
71 2 0.1161077718491751 40.639003120884084 10.004497432877185 28.022217244271808 0 -1 0
79 1 -0.09966372659233483 41.47088612933253 8.33657175472519 29.760289203818278 0 -1 0
63 1 -0.09256525903273674 41.57713262648318 10.632843230664974 27.882865761245462 0 -1 0
62 1 0.01465930954910242 42.76579254569387 10.237141888437698 28.65079323738071 0 -1 0
78 1 0.007810491962789864 42.73689808417132 9.00598238394532 29.550117360255904 0 -1 0
88 2 0.1423093658932194 40.29262580081823 6.706819594396638 30.742591935849497 0 -1 0
80 1 -0.0824653253865113 41.25324029494348 7.167674140174379 30.588316061789126 0 -1 0
81 1 -0.04943138126289466 42.414124092881906 6.656156888130324 31.29370325956393 0 -1 0
64 1 -0.07438726067452903 41.61646642192223 5.729732797543155 27.005602543540938 0 0 0
84 1 0.3958785847213013 42.59311747914055 5.473753698795276 32.25753108409499 0 -1 0
86 3 -0.4501984278237966 41.73025801539492 10.787399119990631 32.690022655455024 0 -2 0
65 1 -0.04936356814514682 42.86860766094153 6.468946466206333 26.95508800827516 0 0 0
82 1 -0.07806434798567731 43.88420050116245 8.441715402223275 30.224049970959086 0 -1 0
83 1 -0.03911003629285319 43.729338018558934 7.320078107694915 31.081725465653058 0 -1 0
110 2 0.2023047102372063 42.87921400402481 9.121973381262762 33.746099076228205 0 -2 0
112 2 0.1775051133060824 43.69149453572597 7.43348462111991 35.263019054632124 0 -2 0
109 1 -0.09846116574684388 43.85017068745917 9.326520398711033 34.25686431616704 0 -2 0
66 1 -0.07721547020790182 44.01793530043798 10.959194170508976 28.608450512643337 0 -1 0
85 4 -0.4270364430507866 44.019849721898 5.423044305916858 32.76693238157433 0 -1 0
309 4 -0.4408044396951344 27.294707434045087 10.697616481427634 40.28559892058493 0 -1 0
312 2 0.142732233743173 31.290552015615056 5.674587824125291 38.228673854635474 0 0 0
318 1 0.01008861649109741 31.537486030661338 9.286508417735767 41.31361371025614 0 0 0
311 2 0.1138326755087576 32.39399186482933 7.558215443443986 39.3381031854079 0 0 0
319 1 -0.1044444827315896 32.92826379690062 9.57101440853192 40.88724456316227 0 0 0
321 1 -0.05079769485528183 33.01391601159394 5.525899984261448 42.30182179082902 0 1 0
315 1 0.3738831059315008 27.578450065449108 5.9179084689947805 41.18385414682173 0 0 0
322 1 -0.0870415465802009 30.82550428255037 10.149507204023944 42.18330487073122 0 0 0
320 1 -0.07886285120800782 33.655279359910196 10.656149362821651 41.34100367073095 0 0 0
305 1 -0.03468354049949439 29.49455794320951 5.725806610373719 39.508777169880005 0 0 0
327 2 0.1200393682715522 33.37756919089368 8.832684322923358 40.21612022120235 0 0 0
316 3 -0.4256119510446345 28.690757544212584 9.92369687052221 38.328240425344106 0 -1 0
324 1 0.3862758680331299 33.56689461461744 6.6980228221025255 43.06779187848767 0 1 0
331 1 0.3834181408915001 31.18937251280663 6.283958107279556 43.7506162149272 0 1 0
325 4 -0.4016046451659409 32.445804464071685 7.232762503675167 44.007838286035714 0 1 0
313 2 0.1744911482757955 29.06367831284426 8.284506738483913 41.95560141148755 0 0 0
326 3 -0.4645986584721165 34.647867564522755 7.1693704517386525 42.873023895168 0 1 0
328 2 0.1434458221143633 34.63872028346252 10.84409168132596 40.90381503159482 0 0 0
323 1 -0.03423535755728537 31.60655549643102 5.196111884494013 42.80995738377258 0 1 0
329 2 0.1645037437736596 29.79614478943112 9.999899342183205 42.46402850730047 0 0 0
306 1 -0.07240325650961317 29.509342545422907 7.6956678401112795 41.21897488734064 0 0 0
308 1 0.3788420274751427 28.52443320830108 10.598837450880207 39.306106755864306 0 -1 0
303 1 -0.09988846656939844 31.38627170498638 7.29385032341634 39.653081768046576 0 0 0
304 1 -0.0700174364537329 30.76849798987565 6.218952063827722 39.02929500332057 0 0 0
302 1 0.001383684905915913 30.821918440181904 8.11444940718814 40.72788623404921 0 0 0
307 1 -0.04269504659393091 28.880315079714578 6.5226536734904155 40.65979147086773 0 0 0
314 3 -0.4143962781799456 26.985819036107344 6.322883643224564 42.16949004420698 0 0 0
350 2 0.1950206962073034 34.57920160330579 9.16466201601757 43.95199974266418 0 1 0
285 2 0.1881809374841404 27.034782547612043 8.053176681171506 39.157730739492465 0 -1 0
344 2 0.1698542222094108 30.601519315050687 10.46988396378294 46.746182111393715 0 1 0
345 1 -0.12171519533045 31.494581402302767 10.19607951815398 46.15419865908902 0 1 0
346 1 -0.1020835531881507 31.342921747691975 9.07003897680572 45.27883180328553 0 1 0
317 2 0.2016164922004201 30.45431460735504 8.520496428967686 45.20928013018199 0 1 0
353 1 0.2372403338823166 32.70056428274174 10.939964934829923 46.28747379086131 0 1 0
347 1 0.1893781043289015 32.49536848726595 8.604879597640108 44.573194911107905 0 1 0
348 3 -0.4760788134378062 32.78778625208574 6.17403147894888 46.93473238429332 0 2 0
351 1 -0.1435676267097352 33.81554847585245 10.564160031229392 45.44401215148536 0 1 0
355 2 0.1607391950725942 33.2320210502872 8.322986401716967 48.2013970616322 0 2 0
352 2 0.1608203647598567 34.72318296743509 5.152005951648252 45.38970500739583 0 2 0
336 1 0.25581140479393 33.8314967221184 6.297902479363723 47.71182398270094 0 2 0
335 1 -0.1402449908667299 33.97428529823125 7.579516636626307 48.3921617359948 0 2 0
337 1 -0.1643364063097277 34.80502285352833 5.256362396634847 48.067238396703466 0 2 0
354 2 0.1331469806400653 34.74446476911228 10.232998000992765 47.60897817842224 0 1 0
340 1 -0.150781594794483 34.99655026520408 7.78038027885183 49.333179527000254 0 2 0
349 1 -0.1001720758441537 33.72169280923407 9.394489090826054 44.623020241791615 0 1 0
271 2 0.1538788146412473 34.98920174465652 8.733178119103131 49.853894921356506 0 2 0
330 3 -0.4350401358483242 30.076975029346105 6.407998948176366 44.17019506939992 0 1 0
338 1 -0.1601067695796176 35.8162298018985 5.4703121525153495 48.9930350282837 0 2 0
358 2 0.1499571599347227 38.385525918988364 6.06750008095884 48.766815011884525 0 2 0
341 2 0.1815267014549289 39.76624040122038 10.055830673812508 48.94119158971488 0 1 0
373 3 -0.4722254370014634 41.1433516297659 8.050434752630405 48.662058432546715 0 1 0
357 1 -0.1118709776130405 39.23409333088638 10.338480585814537 49.812599306717004 0 1 0
356 1 -0.1496170907593765 38.465625429861845 5.52686616571256 49.74732165188921 0 2 0
372 2 0.1489733157873694 42.48436537129367 5.192286306267437 48.75981021547747 0 1 0
334 2 0.1448704930363846 36.43181002302884 10.629992313680631 49.17273070363624 0 1 0
339 1 0.2579538940201656 35.94579840649685 6.760022145141575 49.708752541264786 0 2 0
361 1 0.01419538848841821 43.1681685023128 10.474540128795162 50.66845259229115 0 0 0
332 1 0.2651793414940267 37.71000282880071 5.9492531686450665 50.88193745853796 0 2 0
333 3 -0.496585641275356 36.713081491900155 6.872309035721569 50.77563320592063 0 2 0
374 1 0.3880812114165447 41.03796407625687 7.641001904709359 49.767168790411986 0 1 0
365 1 -0.08521625332700088 42.45149850340946 5.384739140047881 49.820453778656336 0 1 0
359 1 0.1849112335350363 39.35737660251053 9.507384186322899 50.971147630475954 0 1 0
366 1 -0.04141275026499092 41.76991807949888 6.488642404532859 50.43611244524631 0 1 0
368 4 -0.418736996704871 40.362762003381604 8.386660315227259 51.03641897383298 0 1 0
310 1 -0.1286842796451403 37.81286461425404 5.183176138712506 52.06760379862603 0 2 0
364 1 -0.04127168627776749 41.74395426824177 6.530419712369113 51.96346372512848 0 1 0
279 1 -0.104105187056053 38.58481571264677 9.961559027692502 52.06437014851324 0 1 0
367 1 0.3907212177278055 40.9756107629014 7.787750077897728 52.292595415680985 0 1 0
362 1 -0.07125834248376489 43.15400163510898 10.578157532266847 52.123402270146485 0 0 0
385 2 0.1415252355893932 43.84467502857912 9.936412915597067 48.024125645820654 0 0 0
376 1 0.01490633340331635 43.92169152745921 9.258124122251978 50.0839054653591 0 0 0
387 2 0.1616709439934612 44.06259509731937 8.265187594350857 52.10237812733669 0 0 0
370 2 0.1530273729494242 43.68759171002294 9.858475065953828 52.791200995885035 0 0 0
375 3 -0.4490733104133195 40.94387699332802 8.265816216044671 53.398247077136546 0 1 0
371 2 0.1631761746469606 42.51038703989909 5.539731074567766 53.895991779676116 0 1 0
343 2 0.1661279462590401 37.363386130840254 5.557539635573777 52.972634750141815 0 2 0
342 2 0.1865205686818315 38.68306504166959 9.34607280964666 52.94469057739977 0 1 0
363 1 -0.05536620504442872 42.43328591309493 5.551397618087764 52.79607164464282 0 1 0
196 3 -0.4444095874582841 41.11575575702928 10.927168204949668 63.79871828792387 0 -1 0
188 1 0.3925184786285241 41.756044843323885 10.099832539026945 64.35847214739641 0 -1 0
185 1 -0.05089315726680994 41.27470294691206 8.943314764108827 65.24173320256779 0 -1 0
192 2 0.1467955970748266 39.139120353388044 8.941184720288788 64.90944921860668 0 -1 0
184 1 -0.07693611936303826 39.91327724258639 8.398180499349362 65.38430945632376 0 -1 0
183 1 -0.09563059638296706 39.73179652468874 7.1957695069812715 66.08958332648024 0 -1 0
182 1 0.009913672275056233 40.8178410384794 6.4774859704082814 66.77876201732889 0 -1 0
191 2 0.1203972173630908 38.75743077190397 6.8142259373915435 66.16520083312544 0 -1 0
187 1 -0.03090220894446294 42.37993726646911 8.177038283311688 65.86764756292837 0 -1 0
165 2 0.1898434030802914 42.976238671800694 6.536603902287681 63.35513795204968 0 0 0
186 1 -0.06735485628204042 42.13383027015436 6.940014412355439 66.61411242009473 0 -1 0
189 4 -0.4334338662729774 43.3134604752105 10.009778141880556 64.43542682020033 0 -1 0
210 3 -0.4364865076312956 43.68682870700224 8.414997956911463 69.13107550992613 0 -2 0
193 2 0.1728134382329503 42.94577048496138 6.3541869932187725 67.059442090055 0 -1 0
198 1 0.009723169808086135 40.59263614515464 5.293420540084441 67.58037408404822 0 -1 0
207 2 0.1212146194988083 38.38117008771624 5.533066687350289 67.72227742647053 0 -1 0
209 2 0.1689519611022788 42.765245671259926 10.799493229160781 67.79081561669386 0 -2 0
202 1 -0.0803007750662416 41.751492584385055 10.544039494743469 68.04504317671669 0 -2 0
203 1 -0.0271664168008348 41.557439701399645 9.348192556227037 68.81268705172181 0 -2 0
204 1 0.3745399833314661 40.15777008186783 7.574535155179435 69.96738202635268 0 -2 0
199 1 -0.08818020304513549 39.26097834288011 10.887747660303436 68.0319888800987 0 -2 0
201 1 -0.05491253049552494 40.159338018957456 8.927303606031622 69.23042865452996 0 -2 0
208 2 0.1491910177649476 38.05827907344235 9.480643181689981 69.13510063735174 0 -2 0
200 1 -0.07583596819340697 39.051001585030775 9.740250705315272 68.83610370928443 0 -2 0
205 4 -0.4260240426999423 41.73008830429553 7.261338007650281 70.18107073202606 0 -2 0
211 1 0.38175163290757 42.51560308152664 8.344997282844528 69.40808467059546 0 -2 0
195 1 0.3947194230708731 43.663455850132294 8.807023510389893 65.36362311131106 0 -1 0
178 1 -0.09216124279077539 44.05039355664875 6.2598039049620064 63.42612816040313 0 0 0
197 2 0.1909343670269877 40.61800129700113 5.113961256677047 71.59102807759155 0 -2 0
226 1 -0.1070203890518004 41.73761038987063 5.185693104365168 71.70519029741848 0 -2 0
206 3 -0.4444452122501698 39.26483123969838 6.887574692611233 70.37982815205623 0 -2 0
224 2 0.1679356311710252 41.84297428986651 9.272209507363975 72.76563798518347 0 -3 0
227 1 0.1835631374371367 42.416095297877604 6.215418110271659 70.9764087478781 0 -2 0
225 1 -0.1271021018139511 42.44133436261233 10.093734490953471 72.34137286321183 0 -3 0
233 1 0.2537818186838619 43.87397544435673 10.125561680426742 72.47910527320886 0 -3 0
229 1 -0.09839462769396241 43.82012998030429 6.21028062800185 71.06121984304683 0 -2 0
6 1 -0.04116474220480461 49.8127244646673 5.144495860056362 10.940487239264257 0 -1 0
5 1 -0.08995132189689289 49.24790258048784 6.302955724739903 11.608254937249534 0 -1 0
13 3 -0.4793715736213331 47.94467659922895 9.971063346613771 9.943134273549832 0 -2 0
14 1 0.3965095560246141 49.112766448296604 10.057383942292724 10.121052735297567 0 -2 0
12 2 0.139878655047228 48.197566021644185 6.489525304149807 11.615468989044128 0 -1 0
16 1 0.0118040590204044 49.47160718728212 8.354783402411046 13.02804789399808 0 -1 0
20 1 -0.07149432541705071 50.428840611156105 9.049626272142214 13.858960312529792 0 -1 0
25 2 0.1387135502207383 47.384556652693874 8.216905598187367 12.333361766377354 0 -1 0
17 1 -0.07693796866586131 48.08475625837741 8.790184150545638 12.970814727464766 0 -1 0
21 1 -0.03927715908844378 50.01539990285781 10.22222835956503 14.532486107931646 0 -1 0
18 1 -0.06651547872329977 47.57081701734375 9.97364259998146 13.579634098120195 0 -1 0
1 1 0.01500658630770989 50.148662292222056 7.228573683277979 12.295125540994082 0 -1 0
3 1 -0.0597019770004185 52.18306754669766 5.79481651180521 11.699125348547957 0 -1 0
2 1 -0.07803201091075003 51.5926785936238 6.927351911806954 12.27352544730078 0 -1 0
4 1 -0.04193352870187982 51.29535518865501 10.92523672787227 10.944884544257665 0 -2 0
7 1 0.3997484147077056 51.57123256259399 9.694848945235428 10.10775655025482 0 -2 0
10 2 0.1496772925264118 52.29315260223709 7.547215493886068 12.743273925409497 0 -1 0
27 2 0.156688581617914 51.48453976335915 8.805737446701844 13.853101279081287 0 -1 0
26 2 0.1530393774367308 46.4928163128027 10.311019997114517 13.461767893685934 0 -1 0
19 1 -0.04257563526170173 48.55913074184992 10.678380692349347 14.369584914029655 0 -1 0
15 3 -0.4454910170227961 52.60724259058419 9.125404561536332 10.148554917942999 0 -2 0
29 1 0.3972962131295957 50.77044448813593 5.339713612464715 15.204372373548107 0 0 0
28 3 -0.4529708658048344 51.98000854030029 5.2942368403551825 15.297381538860655 0 0 0
23 4 -0.4288464968508908 49.81907366113863 6.431355892620374 15.643362856691668 0 0 0
22 1 0.3939228369090915 48.42996279217872 6.005194959030596 15.08594170179785 0 0 0
46 1 0.1836154225247367 50.05531994517023 7.519335356930066 16.703846743863835 0 0 0
48 1 -0.09061383789677488 51.31237486882358 7.663278779797599 17.3706172417573 0 0 0
24 3 -0.4509693785802669 47.36235798827472 6.504621147155605 15.24507524050225 0 0 0
44 1 -0.1002074719921345 49.062735177827314 8.255446815290739 17.377563798799546 0 0 0
61 2 0.1880350326178902 48.08090841132131 8.272069840348935 17.02911402952038 0 0 0
49 2 0.1846579443838506 52.22643290035266 7.044476954009819 17.066017313545427 0 0 0
221 2 0.1698879056360512 47.989083738789475 7.5295390694861375 9.478448602598863 0 -2 1
8 4 -0.4166356101681947 50.24869046309133 9.121931487555532 9.54666056677535 0 -2 0
11 2 0.1598049748109199 53.26569761276871 5.60067784901474 11.85421382219524 0 -1 0
55 1 -0.1001314295092741 45.09628943262922 10.214360250535673 25.11824493163877 0 0 0
43 1 -0.1438130148891075 49.26755843712601 9.128083846690568 18.45617959589689 0 0 0
42 2 0.1399117987468171 48.45197027735045 9.634222396246585 19.00249689501207 0 0 0
50 1 -0.1318686447102201 51.62342061298403 8.623331980268707 18.392369967610225 0 0 0
52 1 0.2566238801536833 50.590193226225885 9.38356984443678 19.005216658269998 0 0 0
47 3 -0.494911155405674 50.90516886535688 10.51178582145642 19.681326651747707 0 0 0
53 2 0.1297586306906154 48.812514778248556 9.10241560184712 20.97344534442818 0 0 0
51 2 0.1615859041673778 52.639726927247224 8.740956017685836 18.66459326705813 0 0 0
120 2 0.1587522051993846 45.42082901946714 5.972416605169007 23.883847465002184 0 1 0
34 1 0.252831956291594 50.194249646225785 10.857949583926096 20.755106162813078 0 0 0
35 1 -0.16756920112637 49.24019673390424 10.024997874748095 21.439914430450408 0 0 0
36 1 -0.1498923615012197 48.70050162132844 10.46030093302158 22.70032884312625 0 0 0
30 1 -0.1370064830500271 45.91023486841891 5.215769065027049 24.517568481049633 0 1 0
58 1 -0.09987750850617666 46.98951139567845 9.35140834280927 26.23174673832472 0 0 0
56 1 0.1727763955574545 45.610240781440794 9.181266821419886 25.993322256806884 0 0 0
33 1 -0.1319372948372335 50.5272392917447 6.146635173105611 21.38065313740981 0 1 0
60 1 -0.1286862905160882 47.88438153168248 10.371862956243747 25.710276669388744 0 0 0
54 2 0.1593670497078707 51.190262213399365 6.832147169265232 20.878732398120285 0 1 0
59 2 0.1517509471470736 50.26935382017372 7.551414058130325 23.05254750129901 0 1 0
40 2 0.1604959458380235 48.945730999523555 10.34724828196514 25.920458818674472 0 0 0
37 1 0.2513391418689158 49.00062174651375 5.727877934407835 23.31600561850645 0 1 0
32 2 0.1500692515258992 47.933208387011874 9.805433323195562 23.17364602546678 0 0 0
38 1 -0.1420752692202234 49.99306759568459 6.562140745886171 22.586036548165424 0 1 0
9 1 0.2351996768039822 47.293667702473265 5.31538276455498 24.822188147881047 0 1 0
41 3 -0.4883528152198472 48.19106071855443 6.2496557520745695 24.20578388178496 0 1 0
89 2 0.1668754227527992 44.83782069862863 8.947427538413155 30.116093285139012 0 -1 0
45 2 0.2075887672970679 47.464555196943145 8.632260618985546 26.878156128348056 0 0 0
90 3 -0.4317697892276089 45.81377956892106 7.074046153402415 32.33090712641177 0 -1 0
91 1 0.3799737090898596 44.75265383449925 6.637334290775239 32.0288516240054 0 -1 0
73 2 0.1604242336021998 44.85851962620644 10.675707987811144 29.279046180101435 0 -1 0
67 1 -0.03887875165992112 44.108456241160184 6.089569102540573 27.703702071491733 0 0 0
74 3 -0.4406922809959659 46.45736143371127 6.917872202453104 27.87930512173735 0 0 0
75 1 0.3906917648740032 45.3051549497716 7.052797830110639 27.590021422909036 0 0 0
77 2 0.1885749411459628 46.35073584806875 5.556059496566398 34.20085661944094 0 -1 0
106 1 -0.1001995030215896 45.79405125088379 10.66989326119775 34.50786541490737 0 -2 0
107 1 0.1843258740423011 44.54394174929057 10.48908215035867 33.819876301821495 0 -2 0
111 1 -0.1135876512839823 44.27537204629247 8.377064043575725 35.19917437697359 0 -2 0
69 4 -0.4149340077850763 44.71849787005124 8.153855983957282 26.695977010992465 0 0 0
105 1 -0.1483472590744196 46.281495686486934 9.755074958286016 35.49511844778602 0 -2 0
113 1 0.2779756951345189 45.54936713967276 8.593493187606569 35.90752488062929 0 -2 0
108 3 -0.4982804405086081 45.92209151410756 7.6763898496115175 36.75972348087103 0 -2 0
104 2 0.1413451546313305 47.25940758168313 10.027743449639356 35.97074339791743 0 -2 0
114 2 0.1451722836069974 48.16123227156481 6.32039464299731 36.226047197652406 0 -2 0
96 1 0.2309061394794533 47.155370487429 7.9143114628568725 37.35502532470869 0 -2 0
97 1 -0.1425583414101728 48.25490529987771 7.0917591152502535 37.008647928340196 0 -2 0
98 1 -0.1350133603388259 49.515302477269216 7.195243409957789 37.70627814358254 0 -2 0
94 2 0.1572508001267836 50.35237528641085 6.585643648080975 37.38328007563176 0 -2 0
115 2 0.1515797178760014 46.493031530496225 9.456093519577923 38.744125252837314 0 -2 0
95 1 -0.1512174242385786 47.327637387766565 8.844414664870799 38.4464288428284 0 -2 0
118 2 0.1485841493151226 49.05413371109458 8.538786326245443 41.25473134920305 0 -2 0
31 2 0.1375137498494917 48.565324529955134 9.781431558134937 39.85759457814107 0 -2 0
100 1 -0.1635371142016133 48.58735612873703 8.9748171205025 39.08569810597572 0 -2 0
119 1 0.1884834646608821 51.27180240676151 10.509901959275975 43.01707106320755 0 -2 0
117 1 -0.1002414534538676 50.11902253119074 9.771132538296058 42.68804987844299 0 -2 0
116 1 -0.1545724993341985 49.989979166851576 8.991000901877491 41.48878121008224 0 -2 0
99 1 0.2299413393230089 49.711769904422084 8.169104721559298 38.78007693811534 0 -2 0
92 1 0.2699833008817367 51.08385175879935 8.88788347732689 40.52930286808436 0 -2 0
93 3 -0.4890761737022626 50.964358154746066 8.182367094734138 39.40978229670297 0 -2 0
70 1 -0.1238120384638506 52.30734978424968 9.577260348026783 40.92831872829379 0 -2 0
39 1 -0.09254055675278818 52.39403300036193 10.32013000825074 42.11259643335872 0 -2 0
101 2 0.1987925479141534 49.243928359494724 9.83754000181488 43.32167944261359 0 -2 0
439 1 -0.1007411927710153 61.09676211765475 9.192979996452042 39.885346972977544 0 1 0
431 2 0.1103842265987452 59.36213038526243 7.6885232172258 39.928538465130956 0 1 0
103 2 0.1663746756739791 53.177505681254495 9.435000864572231 40.21895850047191 0 -2 0
424 1 -0.06885323730699164 58.68112059181954 6.273557982140215 41.36048044417572 0 1 0
447 2 0.115276359264342 60.45781618398969 8.557469915580736 39.20838958342122 0 1 0
432 2 0.136541177516041 57.860047080658454 5.9480764475679395 40.64661041764471 0 1 0
427 1 -0.02811442755905861 59.943013500683314 6.032554897783025 43.50573634216889 0 1 0
102 2 0.2058747614300975 53.32898668090283 10.91814944001387 42.30554835257019 0 -2 0
423 1 -0.1014349601569598 59.53577353083445 7.353312431366675 40.960256393410916 0 1 0
425 1 -0.05024957259104673 58.88444589000756 5.5143237597222985 42.579387766875456 0 1 0
426 1 -0.07473383480015938 60.8339956397389 7.096023686071413 43.12281036654948 0 1 0
436 3 -0.4604184649990984 57.2768719945987 9.724024270200172 42.678512144279466 0 0 0
428 1 0.4012893112638886 58.188838510435374 10.288068906828428 43.17307002473863 0 0 0
422 1 0.01573161491598762 60.60504487856954 7.783984919654815 41.85258091160375 0 1 0
378 1 -0.07291636229152232 45.00569706971616 8.042266079187996 48.189455449217455 0 0 0
384 3 -0.4571842210163676 47.01733627228419 5.609215180701243 47.937662364646506 0 0 0
382 1 0.3553055071917887 46.61534511456005 6.025174613169268 48.9928182286935 0 0 0
386 2 0.162634650789485 45.22010765294906 7.9754260312266565 47.12343886661071 0 0 0
132 2 0.1893683266039151 48.76991720403142 6.9995086067048184 47.416668098636706 0 -1 0
133 3 -0.4305561037242236 48.92055212888444 5.373566351261739 45.02095708246605 0 -1 0
409 2 0.1825217233517841 49.094896744965226 10.988842020602892 48.59253614968542 0 -1 0
125 1 -0.08858790248447218 49.79920915031437 7.370246602653429 47.25871207906676 0 -1 0
126 1 -0.04085969695775351 50.475079358929136 6.8054948886153275 46.10104215449052 0 -1 0
121 1 0.0003528141047080685 50.54929352539822 8.23197631982158 48.11682735697552 0 -1 0
134 1 0.3945546386639105 50.040916786275744 5.739943146418321 45.13953761167171 0 -1 0
128 4 -0.4105120043456263 51.25158525017222 5.388935875168429 44.19188138618208 0 -1 0
411 2 0.1344899381338861 51.48608939887205 5.416800199697223 48.829631675943574 0 0 0
124 1 -0.0546181056704643 51.9371504897769 7.0982815049583134 45.81282986048671 0 -1 0
127 1 0.3799925798732518 52.5099509498561 6.273284506373052 44.660268803585 0 -1 0
377 1 -0.08016384964121742 44.27220016580406 9.157595822382739 48.706847954946355 0 0 0
122 1 -0.1230532935982206 51.89178895640419 8.652511689950591 47.7628748104997 0 -1 0
145 2 0.1543238436037495 47.894663434154374 8.37037714153215 49.01444105458334 0 -1 0
379 1 -0.05775038316800675 45.53512038437451 7.090265252368779 49.11526167850966 0 0 0
408 1 -0.1020317581933618 49.46197490263505 5.3806376136246215 49.611670763856125 0 0 0
130 2 0.1107889026579545 52.452578543546196 9.354036155551258 48.395173616526336 0 -1 0
137 1 -0.09476704358868183 48.65845588238545 8.409272821372785 49.82036572296243 0 -1 0
136 1 -0.00701897637024303 50.08451633304078 8.499561379810793 49.511409439144416 0 -1 0
123 1 -0.09152496567011169 52.598805944726124 7.994582143531378 46.68646021391653 0 -1 0
383 4 -0.4321550982015373 47.039285342295265 5.5517044750365105 50.443011949094725 0 0 0
406 1 0.1637286462527545 48.51685989621163 5.530877256405906 50.67525875894922 0 0 0
381 1 -0.05748367481188121 45.28793374791391 7.275226961494747 50.602876991742775 0 0 0
380 1 -0.09044545073622964 44.32666195923309 8.257198117317 51.06090581773556 0 0 0
389 1 0.3724129151964783 46.05952911305029 6.2656308744828575 51.429038346969016 0 0 0
138 1 -0.05634778436870198 48.207444366657924 8.573461329499239 51.18389784625564 0 -1 0
410 1 -0.1687369166304854 50.85878994704807 5.561496417519274 49.69928824663312 0 0 0
404 1 -0.1064689618644665 49.06943328532048 5.810749975617391 51.9577331604418 0 0 0
403 1 -0.1122772595794953 50.46277315215929 5.955441730676414 52.10106883720878 0 0 0
412 1 0.2491002715646685 51.43235666989001 5.803021827928341 51.021926363507525 0 0 0
140 1 -0.09736031455094196 51.04565862794489 8.755462623576589 50.58791918036423 0 -1 0
146 2 0.1753878330261482 47.10611731587239 8.602470668212542 51.419414008395314 0 -1 0
147 2 0.1377126239641659 52.12506708233786 8.876847223908221 50.3894383928339 0 -1 0
388 3 -0.4335578846452842 45.94141798745981 6.173438016988527 52.620839967456966 0 0 0
139 1 -0.04399292171751699 49.19217195485929 8.730912902792062 52.26506119786885 0 -1 0
141 1 -0.04082252168930908 50.65278130435076 8.932152649261328 51.93897547768341 0 -1 0
405 2 0.2192573406297259 56.77489726820731 8.354641971070578 44.29138015367204 0 0 0
131 2 0.1336052060585178 53.62636033298966 8.239187808030355 46.47391752600704 0 -1 0
135 3 -0.4567414297171797 53.57064205808929 6.319141394918242 44.11659407003039 0 -1 0
398 1 -0.1629312586038866 54.87652410951668 6.583057093412402 48.44729453229799 0 0 0