 LAMMPS data file, charge style generated xyz_lammps.py by Wenchang Lu 

480 atoms
4 atom types

0.000000   88.142027   xlo xhi 
0.000000   16.000000   ylo yhi 
0.000000   88.142027   zlo zhi 
0.000000   0.000000   0.000000  xy xz yz 

Masses

4  14.006700
1  12.010700
2  1.007940
3  15.999000

Atoms # charge

1 1 0.0 46.081002 2.239998 4.679788 
2 1 0.0 46.686130 3.302638 4.017109 
3 1 0.0 47.205535 3.119791 2.759205 
4 1 0.0 47.192971 1.838882 2.244743 
5 1 0.0 45.939964 0.991311 4.082976 
6 1 0.0 46.529432 0.795703 2.864107 
7 1 0.0 47.856440 1.351868 1.032616 
8 4 0.0 47.364414 -0.088054 0.826376 
9 1 0.0 44.725559 -2.941935 20.128931 
10 2 0.0 46.817469 4.244346 4.534422 
11 2 0.0 47.644525 3.937733 2.219030 
12 2 0.0 45.430582 0.189146 4.591951 
13 3 0.0 45.846899 -1.384673 2.173375 
14 1 0.0 46.515962 -0.393105 1.983368 
15 3 0.0 48.553466 1.988728 0.300118 
16 1 0.0 45.626510 2.436717 6.022243 
17 1 0.0 45.231090 3.703807 6.443657 
18 1 0.0 44.762859 3.926006 7.716117 
19 1 0.0 44.717305 2.840888 8.535993 
20 1 0.0 45.595383 1.349352 6.882268 
21 1 0.0 45.133284 1.594063 8.126901 
22 1 0.0 44.232453 2.739444 9.890291 
23 4 0.0 44.429357 1.410912 10.242842 
24 3 0.0 43.727780 3.593786 10.584850 
25 2 0.0 45.254676 4.524761 5.750286 
26 2 0.0 44.418673 4.884467 8.059740 
27 2 0.0 45.917825 0.358024 6.612534 
28 3 0.0 45.199733 -0.539247 9.221452 
29 1 0.0 44.958735 0.650970 9.210428 
30 1 0.0 44.812722 -1.727164 20.781361 
31 2 0.0 45.483447 4.969625 39.439473 
32 2 0.0 44.144729 -4.367928 16.989828 
33 1 0.0 43.815133 -0.556633 16.700414 
34 1 0.0 43.278115 -1.377579 15.731656 
35 1 0.0 43.408233 -2.745386 15.804779 
36 1 0.0 44.049816 -3.300879 16.888832 
37 1 0.0 44.577531 -2.487807 17.868110 
38 1 0.0 44.466600 -1.111908 17.777839 
39 1 0.0 46.935828 0.068049 42.301272 
40 2 0.0 44.083155 -4.973515 20.168948 
41 3 0.0 45.266826 -3.106018 18.884207 
42 2 0.0 41.161619 0.410229 13.144717 
43 1 0.0 42.194714 0.378394 12.857994 
44 1 0.0 42.641767 0.953536 11.709908 
45 2 0.0 42.976046 -4.710874 22.402681 
46 1 0.0 43.985820 0.873033 11.429530 
47 3 0.0 42.481858 -0.835803 14.754791 
48 1 0.0 44.883783 0.242525 12.250934 
49 2 0.0 45.917807 0.194213 11.955473 
50 1 0.0 44.438100 -0.346487 13.410437 
51 2 0.0 45.124848 -0.870279 14.052076 
52 1 0.0 43.085742 -0.268033 13.690607 
53 2 0.0 42.981098 -3.373762 15.040610 
54 2 0.0 43.704001 0.512377 16.625293 
55 1 0.0 44.187940 -1.590248 21.989371 
56 1 0.0 43.532953 -2.680713 22.519834 
57 2 0.0 44.181440 -0.644515 22.510390 
58 1 0.0 43.511657 -3.908170 21.923595 
59 2 0.0 44.873757 -0.464848 18.532495 
60 1 0.0 44.119323 -4.041296 20.701686 
61 2 0.0 41.972885 1.465697 11.040633 
62 1 0.0 41.390741 0.210255 26.956893 
63 1 0.0 40.401338 0.529816 26.039269 
64 1 0.0 40.304970 -0.133182 24.843733 
65 1 0.0 41.243263 -1.090711 24.621495 
66 1 0.0 42.309742 -0.800933 26.745191 
67 1 0.0 42.220202 -1.419281 25.542633 
68 1 0.0 41.542009 -1.720147 23.362486 
69 4 0.0 42.713224 -2.450938 23.610657 
70 1 0.0 46.566437 1.108997 41.457199 
71 2 0.0 39.723461 1.332474 26.264659 
72 2 0.0 39.588561 0.108017 24.078314 
73 2 0.0 43.121138 -0.998288 27.427869 
74 3 0.0 44.234620 -2.722372 25.357426 
75 1 0.0 43.196068 -2.288827 24.909798 
76 3 0.0 40.985441 -1.583664 22.294734 
77 2 0.0 40.133494 3.748502 33.635124 
78 1 0.0 41.528162 1.042349 28.106350 
79 1 0.0 41.513299 2.414069 27.897722 
80 1 0.0 41.630023 3.280149 28.954365 
81 1 0.0 41.740040 2.707050 30.181899 
82 1 0.0 41.671601 0.467835 29.358955 
83 1 0.0 41.758519 1.343080 30.390782 
84 1 0.0 41.837474 3.387505 31.449120 
85 4 0.0 41.884662 2.363694 32.390362 
86 3 0.0 41.873284 4.585305 31.646448 
87 2 0.0 41.431886 2.797472 26.894843 
88 2 0.0 41.629210 4.348271 28.851186 
89 2 0.0 41.663432 -0.599337 29.519724 
90 3 0.0 41.880060 0.044385 32.414326 
91 1 0.0 41.849851 1.098922 31.817273 
92 1 0.0 46.044049 2.299105 41.946555 
93 3 0.0 45.869657 3.362915 41.135364 
94 2 0.0 43.848158 1.458472 41.198972 
95 1 0.0 43.742287 4.182124 38.433735 
96 1 0.0 42.806694 3.163659 38.504986 
97 1 0.0 42.855456 2.190124 39.467622 
98 1 0.0 43.846001 2.206303 40.422784 
99 1 0.0 44.781231 3.223271 40.335382 
100 1 0.0 44.727355 4.206288 39.376057 
101 2 0.0 45.693667 1.554456 45.025835 
102 2 0.0 47.460838 -0.759636 41.833148 
103 2 0.0 46.723313 1.062098 40.387024 
104 2 0.0 40.139119 4.176157 36.098960 
105 1 0.0 40.888317 3.570278 35.624296 
106 1 0.0 40.892267 3.345619 34.281018 
107 1 0.0 41.895274 2.570774 33.749642 
108 3 0.0 41.687282 3.168568 37.725462 
109 1 0.0 42.887833 2.000109 34.509877 
110 2 0.0 43.624062 1.371668 34.036127 
111 1 0.0 42.886173 2.219343 35.865426 
112 2 0.0 43.645899 1.785279 36.491931 
113 1 0.0 41.868300 2.991946 36.400455 
114 2 0.0 42.067631 1.457952 39.486205 
115 2 0.0 43.697486 4.973515 37.706889 
116 1 0.0 45.658099 2.417300 43.244335 
117 1 0.0 45.825523 1.315358 43.998739 
118 2 0.0 45.471227 3.349614 43.764965 
119 1 0.0 46.609821 0.215849 43.656933 
120 2 0.0 45.329088 -0.892652 20.346219 
121 1 0.0 46.081002 2.239998 48.750801 
122 1 0.0 46.686130 3.302638 48.088122 
123 1 0.0 47.205535 3.119791 46.830218 
124 1 0.0 47.192971 1.838882 46.315756 
125 1 0.0 45.939964 0.991311 48.153989 
126 1 0.0 46.529432 0.795703 46.935120 
127 1 0.0 47.856440 1.351868 45.103629 
128 4 0.0 47.364414 -0.088054 44.897389 
129 1 0.0 44.725559 -2.941935 64.199944 
130 2 0.0 46.817469 4.244346 48.605435 
131 2 0.0 47.644525 3.937733 46.290043 
132 2 0.0 45.430582 0.189146 48.662964 
133 3 0.0 45.846899 -1.384673 46.244388 
134 1 0.0 46.515962 -0.393105 46.054381 
135 3 0.0 48.553466 1.988728 44.371131 
136 1 0.0 45.626510 2.436717 50.093256 
137 1 0.0 45.231090 3.703807 50.514670 
138 1 0.0 44.762859 3.926006 51.787130 
139 1 0.0 44.717305 2.840888 52.607006 
140 1 0.0 45.595383 1.349352 50.953281 
141 1 0.0 45.133284 1.594063 52.197914 
142 1 0.0 44.232453 2.739444 53.961305 
143 4 0.0 44.429357 1.410912 54.313855 
144 3 0.0 43.727780 3.593786 54.655863 
145 2 0.0 45.254676 4.524761 49.821299 
146 2 0.0 44.418673 4.884467 52.130754 
147 2 0.0 45.917825 0.358024 50.683547 
148 3 0.0 45.199733 -0.539247 53.292465 
149 1 0.0 44.958735 0.650970 53.281441 
150 1 0.0 44.812722 -1.727164 64.852375 
151 2 0.0 45.483447 4.969625 83.510487 
152 2 0.0 44.144729 -4.367928 61.060842 
153 1 0.0 43.815133 -0.556633 60.771427 
154 1 0.0 43.278115 -1.377579 59.802669 
155 1 0.0 43.408233 -2.745386 59.875792 
156 1 0.0 44.049816 -3.300879 60.959845 
157 1 0.0 44.577531 -2.487807 61.939123 
158 1 0.0 44.466600 -1.111908 61.848852 
159 1 0.0 46.935828 0.068049 86.372285 
160 2 0.0 44.083155 -4.973515 64.239961 
161 3 0.0 45.266826 -3.106018 62.955220 
162 2 0.0 41.161619 0.410229 57.215730 
163 1 0.0 42.194714 0.378394 56.929007 
164 1 0.0 42.641767 0.953536 55.780921 
165 2 0.0 42.976046 -4.710874 66.473694 
166 1 0.0 43.985820 0.873033 55.500543 
167 3 0.0 42.481858 -0.835803 58.825805 
168 1 0.0 44.883783 0.242525 56.321948 
169 2 0.0 45.917807 0.194213 56.026486 
170 1 0.0 44.438100 -0.346487 57.481450 
171 2 0.0 45.124848 -0.870279 58.123089 
172 1 0.0 43.085742 -0.268033 57.761621 
173 2 0.0 42.981098 -3.373762 59.111623 
174 2 0.0 43.704001 0.512377 60.696307 
175 1 0.0 44.187940 -1.590248 66.060384 
176 1 0.0 43.532953 -2.680713 66.590848 
177 2 0.0 44.181440 -0.644515 66.581403 
178 1 0.0 43.511657 -3.908170 65.994609 
179 2 0.0 44.873757 -0.464848 62.603508 
180 1 0.0 44.119323 -4.041296 64.772700 
181 2 0.0 41.972885 1.465697 55.111646 
182 1 0.0 41.390741 0.210255 71.027906 
183 1 0.0 40.401338 0.529816 70.110283 
184 1 0.0 40.304970 -0.133182 68.914746 
185 1 0.0 41.243263 -1.090711 68.692508 
186 1 0.0 42.309742 -0.800933 70.816204 
187 1 0.0 42.220202 -1.419281 69.613646 
188 1 0.0 41.542009 -1.720147 67.433500 
189 4 0.0 42.713224 -2.450938 67.681670 
190 1 0.0 46.566437 1.108997 85.528212 
191 2 0.0 39.723461 1.332474 70.335672 
192 2 0.0 39.588561 0.108017 68.149327 
193 2 0.0 43.121138 -0.998288 71.498883 
194 3 0.0 44.234620 -2.722372 69.428439 
195 1 0.0 43.196068 -2.288827 68.980812 
196 3 0.0 40.985441 -1.583664 66.365748 
197 2 0.0 40.133494 3.748502 77.706137 
198 1 0.0 41.528162 1.042349 72.177363 
199 1 0.0 41.513299 2.414069 71.968736 
200 1 0.0 41.630023 3.280149 73.025378 
201 1 0.0 41.740040 2.707050 74.252912 
202 1 0.0 41.671601 0.467835 73.429969 
203 1 0.0 41.758519 1.343080 74.461795 
204 1 0.0 41.837474 3.387505 75.520133 
205 4 0.0 41.884662 2.363694 76.461376 
206 3 0.0 41.873284 4.585305 75.717461 
207 2 0.0 41.431886 2.797472 70.965856 
208 2 0.0 41.629210 4.348271 72.922199 
209 2 0.0 41.663432 -0.599337 73.590737 
210 3 0.0 41.880060 0.044385 76.485339 
211 1 0.0 41.849851 1.098922 75.888286 
212 1 0.0 46.044049 2.299105 86.017568 
213 3 0.0 45.869657 3.362915 85.206377 
214 2 0.0 43.848158 1.458472 85.269985 
215 1 0.0 43.742287 4.182124 82.504748 
216 1 0.0 42.806694 3.163659 82.575999 
217 1 0.0 42.855456 2.190124 83.538636 
218 1 0.0 43.846001 2.206303 84.493797 
219 1 0.0 44.781231 3.223271 84.406396 
220 1 0.0 44.727355 4.206288 83.447070 
221 2 0.0 45.693667 1.554456 89.096849 
222 2 0.0 47.460838 -0.759636 85.904161 
223 2 0.0 46.723313 1.062098 84.458037 
224 2 0.0 40.139119 4.176157 80.169973 
225 1 0.0 40.888317 3.570278 79.695309 
226 1 0.0 40.892267 3.345619 78.352032 
227 1 0.0 41.895274 2.570774 77.820655 
228 3 0.0 41.687282 3.168568 81.796475 
229 1 0.0 42.887833 2.000109 78.580890 
230 2 0.0 43.624062 1.371668 78.107140 
231 1 0.0 42.886173 2.219343 79.936439 
232 2 0.0 43.645899 1.785279 80.562944 
233 1 0.0 41.868300 2.991946 80.471468 
234 2 0.0 42.067631 1.457952 83.557218 
235 2 0.0 43.697486 4.973515 81.777903 
236 1 0.0 45.658099 2.417300 87.315348 
237 1 0.0 45.825523 1.315358 88.069753 
238 2 0.0 45.471227 3.349614 87.835978 
239 1 0.0 46.609821 0.215849 87.727947 
240 2 0.0 45.329088 -0.892652 64.417233 
241 1 0.0 4.679788 8.239998 46.081002 
242 1 0.0 4.017109 9.302638 46.686130 
243 1 0.0 2.759205 9.119791 47.205535 
244 1 0.0 2.244743 7.838882 47.192971 
245 1 0.0 4.082976 6.991311 45.939964 
246 1 0.0 2.864107 6.795703 46.529432 
247 1 0.0 1.032616 7.351868 47.856440 
248 4 0.0 0.826376 5.911946 47.364414 
249 1 0.0 20.128931 3.058065 44.725559 
250 2 0.0 4.534422 10.244346 46.817469 
251 2 0.0 2.219030 9.937733 47.644525 
252 2 0.0 4.591951 6.189146 45.430582 
253 3 0.0 2.173375 4.615327 45.846899 
254 1 0.0 1.983368 5.606895 46.515962 
255 3 0.0 0.300118 7.988728 48.553466 
256 1 0.0 6.022243 8.436717 45.626510 
257 1 0.0 6.443657 9.703807 45.231090 
258 1 0.0 7.716117 9.926006 44.762859 
259 1 0.0 8.535993 8.840888 44.717305 
260 1 0.0 6.882268 7.349352 45.595383 
261 1 0.0 8.126901 7.594063 45.133284 
262 1 0.0 9.890291 8.739444 44.232453 
263 4 0.0 10.242842 7.410912 44.429357 
264 3 0.0 10.584850 9.593786 43.727780 
265 2 0.0 5.750286 10.524761 45.254676 
266 2 0.0 8.059740 10.884467 44.418673 
267 2 0.0 6.612534 6.358024 45.917825 
268 3 0.0 9.221452 5.460753 45.199733 
269 1 0.0 9.210428 6.650970 44.958735 
270 1 0.0 20.781361 4.272836 44.812722 
271 2 0.0 39.439473 10.969625 45.483447 
272 2 0.0 16.989828 1.632072 44.144729 
273 1 0.0 16.700414 5.443367 43.815133 
274 1 0.0 15.731656 4.622421 43.278115 
275 1 0.0 15.804779 3.254614 43.408233 
276 1 0.0 16.888832 2.699121 44.049816 
277 1 0.0 17.868110 3.512193 44.577531 
278 1 0.0 17.777839 4.888092 44.466600 
279 1 0.0 42.301272 6.068049 46.935828 
280 2 0.0 20.168948 1.026485 44.083155 
281 3 0.0 18.884207 2.893982 45.266826 
282 2 0.0 13.144717 6.410229 41.161619 
283 1 0.0 12.857994 6.378394 42.194714 
284 1 0.0 11.709908 6.953536 42.641767 
285 2 0.0 22.402681 1.289126 42.976046 
286 1 0.0 11.429530 6.873033 43.985820 
287 3 0.0 14.754791 5.164197 42.481858 
288 1 0.0 12.250934 6.242525 44.883783 
289 2 0.0 11.955473 6.194213 45.917807 
290 1 0.0 13.410437 5.653513 44.438100 
291 2 0.0 14.052076 5.129721 45.124848 
292 1 0.0 13.690607 5.731967 43.085742 
293 2 0.0 15.040610 2.626238 42.981098 
294 2 0.0 16.625293 6.512377 43.704001 
295 1 0.0 21.989371 4.409752 44.187940 
296 1 0.0 22.519834 3.319287 43.532953 
297 2 0.0 22.510390 5.355485 44.181440 
298 1 0.0 21.923595 2.091830 43.511657 
299 2 0.0 18.532495 5.535152 44.873757 
300 1 0.0 20.701686 1.958704 44.119323 
301 2 0.0 11.040633 7.465697 41.972885 
302 1 0.0 26.956893 6.210255 41.390741 
303 1 0.0 26.039269 6.529816 40.401338 
304 1 0.0 24.843733 5.866818 40.304970 
305 1 0.0 24.621495 4.909289 41.243263 
306 1 0.0 26.745191 5.199067 42.309742 
307 1 0.0 25.542633 4.580719 42.220202 
308 1 0.0 23.362486 4.279853 41.542009 
309 4 0.0 23.610657 3.549062 42.713224 
310 1 0.0 41.457199 7.108997 46.566437 
311 2 0.0 26.264659 7.332474 39.723461 
312 2 0.0 24.078314 6.108017 39.588561 
313 2 0.0 27.427869 5.001712 43.121138 
314 3 0.0 25.357426 3.277628 44.234620 
315 1 0.0 24.909798 3.711173 43.196068 
316 3 0.0 22.294734 4.416336 40.985441 
317 2 0.0 33.635124 9.748502 40.133494 
318 1 0.0 28.106350 7.042349 41.528162 
319 1 0.0 27.897722 8.414069 41.513299 
320 1 0.0 28.954365 9.280149 41.630023 
321 1 0.0 30.181899 8.707050 41.740040 
322 1 0.0 29.358955 6.467835 41.671601 
323 1 0.0 30.390782 7.343080 41.758519 
324 1 0.0 31.449120 9.387505 41.837474 
325 4 0.0 32.390362 8.363694 41.884662 
326 3 0.0 31.646448 10.585305 41.873284 
327 2 0.0 26.894843 8.797472 41.431886 
328 2 0.0 28.851186 10.348271 41.629210 
329 2 0.0 29.519724 5.400663 41.663432 
330 3 0.0 32.414326 6.044385 41.880060 
331 1 0.0 31.817273 7.098922 41.849851 
332 1 0.0 41.946555 8.299105 46.044049 
333 3 0.0 41.135364 9.362915 45.869657 
334 2 0.0 41.198972 7.458472 43.848158 
335 1 0.0 38.433735 10.182124 43.742287 
336 1 0.0 38.504986 9.163659 42.806694 
337 1 0.0 39.467622 8.190124 42.855456 
338 1 0.0 40.422784 8.206303 43.846001 
339 1 0.0 40.335382 9.223271 44.781231 
340 1 0.0 39.376057 10.206288 44.727355 
341 2 0.0 45.025835 7.554456 45.693667 
342 2 0.0 41.833148 5.240364 47.460838 
343 2 0.0 40.387024 7.062098 46.723313 
344 2 0.0 36.098960 10.176157 40.139119 
345 1 0.0 35.624296 9.570278 40.888317 
346 1 0.0 34.281018 9.345619 40.892267 
347 1 0.0 33.749642 8.570774 41.895274 
348 3 0.0 37.725462 9.168568 41.687282 
349 1 0.0 34.509877 8.000109 42.887833 
350 2 0.0 34.036127 7.371668 43.624062 
351 1 0.0 35.865426 8.219343 42.886173 
352 2 0.0 36.491931 7.785279 43.645899 
353 1 0.0 36.400455 8.991946 41.868300 
354 2 0.0 39.486205 7.457952 42.067631 
355 2 0.0 37.706889 10.973515 43.697486 
356 1 0.0 43.244335 8.417300 45.658099 
357 1 0.0 43.998739 7.315358 45.825523 
358 2 0.0 43.764965 9.349614 45.471227 
359 1 0.0 43.656933 6.215849 46.609821 
360 2 0.0 20.346219 5.107348 45.329088 
361 1 0.0 48.750801 8.239998 46.081002 
362 1 0.0 48.088122 9.302638 46.686130 
363 1 0.0 46.830218 9.119791 47.205535 
364 1 0.0 46.315756 7.838882 47.192971 
365 1 0.0 48.153989 6.991311 45.939964 
366 1 0.0 46.935120 6.795703 46.529432 
367 1 0.0 45.103629 7.351868 47.856440 
368 4 0.0 44.897389 5.911946 47.364414 
369 1 0.0 64.199944 3.058065 44.725559 
370 2 0.0 48.605435 10.244346 46.817469 
371 2 0.0 46.290043 9.937733 47.644525 
372 2 0.0 48.662964 6.189146 45.430582 
373 3 0.0 46.244388 4.615327 45.846899 
374 1 0.0 46.054381 5.606895 46.515962 
375 3 0.0 44.371131 7.988728 48.553466 
376 1 0.0 50.093256 8.436717 45.626510 
377 1 0.0 50.514670 9.703807 45.231090 
378 1 0.0 51.787130 9.926006 44.762859 
379 1 0.0 52.607006 8.840888 44.717305 
380 1 0.0 50.953281 7.349352 45.595383 
381 1 0.0 52.197914 7.594063 45.133284 
382 1 0.0 53.961305 8.739444 44.232453 
383 4 0.0 54.313855 7.410912 44.429357 
384 3 0.0 54.655863 9.593786 43.727780 
385 2 0.0 49.821299 10.524761 45.254676 
386 2 0.0 52.130754 10.884467 44.418673 
387 2 0.0 50.683547 6.358024 45.917825 
388 3 0.0 53.292465 5.460753 45.199733 
389 1 0.0 53.281441 6.650970 44.958735 
390 1 0.0 64.852375 4.272836 44.812722 
391 2 0.0 83.510487 10.969625 45.483447 
392 2 0.0 61.060842 1.632072 44.144729 
393 1 0.0 60.771427 5.443367 43.815133 
394 1 0.0 59.802669 4.622421 43.278115 
395 1 0.0 59.875792 3.254614 43.408233 
396 1 0.0 60.959845 2.699121 44.049816 
397 1 0.0 61.939123 3.512193 44.577531 
398 1 0.0 61.848852 4.888092 44.466600 
399 1 0.0 86.372285 6.068049 46.935828 
400 2 0.0 64.239961 1.026485 44.083155 
401 3 0.0 62.955220 2.893982 45.266826 
402 2 0.0 57.215730 6.410229 41.161619 
403 1 0.0 56.929007 6.378394 42.194714 
404 1 0.0 55.780921 6.953536 42.641767 
405 2 0.0 66.473694 1.289126 42.976046 
406 1 0.0 55.500543 6.873033 43.985820 
407 3 0.0 58.825805 5.164197 42.481858 
408 1 0.0 56.321948 6.242525 44.883783 
409 2 0.0 56.026486 6.194213 45.917807 
410 1 0.0 57.481450 5.653513 44.438100 
411 2 0.0 58.123089 5.129721 45.124848 
412 1 0.0 57.761621 5.731967 43.085742 
413 2 0.0 59.111623 2.626238 42.981098 
414 2 0.0 60.696307 6.512377 43.704001 
415 1 0.0 66.060384 4.409752 44.187940 
416 1 0.0 66.590848 3.319287 43.532953 
417 2 0.0 66.581403 5.355485 44.181440 
418 1 0.0 65.994609 2.091830 43.511657 
419 2 0.0 62.603508 5.535152 44.873757 
420 1 0.0 64.772700 1.958704 44.119323 
421 2 0.0 55.111646 7.465697 41.972885 
422 1 0.0 71.027906 6.210255 41.390741 
423 1 0.0 70.110283 6.529816 40.401338 
424 1 0.0 68.914746 5.866818 40.304970 
425 1 0.0 68.692508 4.909289 41.243263 
426 1 0.0 70.816204 5.199067 42.309742 
427 1 0.0 69.613646 4.580719 42.220202 
428 1 0.0 67.433500 4.279853 41.542009 
429 4 0.0 67.681670 3.549062 42.713224 
430 1 0.0 85.528212 7.108997 46.566437 
431 2 0.0 70.335672 7.332474 39.723461 
432 2 0.0 68.149327 6.108017 39.588561 
433 2 0.0 71.498883 5.001712 43.121138 
434 3 0.0 69.428439 3.277628 44.234620 
435 1 0.0 68.980812 3.711173 43.196068 
436 3 0.0 66.365748 4.416336 40.985441 
437 2 0.0 77.706137 9.748502 40.133494 
438 1 0.0 72.177363 7.042349 41.528162 
439 1 0.0 71.968736 8.414069 41.513299 
440 1 0.0 73.025378 9.280149 41.630023 
441 1 0.0 74.252912 8.707050 41.740040 
442 1 0.0 73.429969 6.467835 41.671601 
443 1 0.0 74.461795 7.343080 41.758519 
444 1 0.0 75.520133 9.387505 41.837474 
445 4 0.0 76.461376 8.363694 41.884662 
446 3 0.0 75.717461 10.585305 41.873284 
447 2 0.0 70.965856 8.797472 41.431886 
448 2 0.0 72.922199 10.348271 41.629210 
449 2 0.0 73.590737 5.400663 41.663432 
450 3 0.0 76.485339 6.044385 41.880060 
451 1 0.0 75.888286 7.098922 41.849851 
452 1 0.0 86.017568 8.299105 46.044049 
453 3 0.0 85.206377 9.362915 45.869657 
454 2 0.0 85.269985 7.458472 43.848158 
455 1 0.0 82.504748 10.182124 43.742287 
456 1 0.0 82.575999 9.163659 42.806694 
457 1 0.0 83.538636 8.190124 42.855456 
458 1 0.0 84.493797 8.206303 43.846001 
459 1 0.0 84.406396 9.223271 44.781231 
460 1 0.0 83.447070 10.206288 44.727355 
461 2 0.0 89.096849 7.554456 45.693667 
462 2 0.0 85.904161 5.240364 47.460838 
463 2 0.0 84.458037 7.062098 46.723313 
464 2 0.0 80.169973 10.176157 40.139119 
465 1 0.0 79.695309 9.570278 40.888317 
466 1 0.0 78.352032 9.345619 40.892267 
467 1 0.0 77.820655 8.570774 41.895274 
468 3 0.0 81.796475 9.168568 41.687282 
469 1 0.0 78.580890 8.000109 42.887833 
470 2 0.0 78.107140 7.371668 43.624062 
471 1 0.0 79.936439 8.219343 42.886173 
472 2 0.0 80.562944 7.785279 43.645899 
473 1 0.0 80.471468 8.991946 41.868300 
474 2 0.0 83.557218 7.457952 42.067631 
475 2 0.0 81.777903 10.973515 43.697486 
476 1 0.0 87.315348 8.417300 45.658099 
477 1 0.0 88.069753 7.315358 45.825523 
478 2 0.0 87.835978 9.349614 45.471227 
479 1 0.0 87.727947 6.215849 46.609821 
480 2 0.0 64.417233 5.107348 45.329088 
