
     Program PWSCF v.7.3.1 starts on 28Oct2024 at  9:55:36 
        Git branch: develop
        Last git commit: de3035747f5d8f2ec9a67869827341ebb43f5b12
        Last git commit date: Tue May 7 11:03:11 2024 +0000
        Last git commit subject: Merge branch 'LR_Modules-ZGEMM' into 'develop'

     This program is part of the open-source Quantum ESPRESSO suite
     for quantum simulation of materials; please cite
         "P. Giannozzi et al., J. Phys.:Condens. Matter 21 395502 (2009);
         "P. Giannozzi et al., J. Phys.:Condens. Matter 29 465901 (2017);
         "P. Giannozzi et al., J. Chem. Phys. 152 154105 (2020);
          URL http://www.quantum-espresso.org", 
     in publications or presentations arising from this work. More details at
     http://www.quantum-espresso.org/quote

     Parallel version (MPI), running on    32 processors

     MPI processes distributed on     1 nodes
     87332 MiB available memory on the printing compute node when the environment starts

     Waiting for input...
     Reading input from standard input

     Current dimensions of program PWSCF are:
     Max number of different atomic species (ntypx) = 10
     Max number of k-points (npk) =  40000
     Max angular momentum in pseudopotentials (lmaxx) =  4

     R & G space division:  proc/nbgrp/npool/nimage =      32
     Subspace diagonalization in iterative solution of the eigenvalue problem:
     one sub-group per band group will be used
     custom distributed-memory algorithm (size of sub-group:  4*  4 procs)


     Parallelization info
     --------------------
     sticks:   dense  smooth     PW     G-vecs:    dense   smooth      PW
     Min          74      74     20                19320    19320    2916
     Max          75      75     21                19345    19345    2955
     Sum        2373    2373    671               618459   618459   94307

     Using Slab Decomposition



     bravais-lattice index     =            0
     lattice parameter (alat)  =      14.3581  a.u.
     unit-cell volume          =   18103.7739 (a.u.)^3
     number of atoms/cell      =          240
     number of atomic types    =            4
     number of electrons       =       800.00
     number of Kohn-Sham states=          400
     kinetic-energy cutoff     =      40.0000  Ry
     charge density cutoff     =     160.0000  Ry
     scf convergence threshold =      1.0E-06
     mixing beta               =       0.6000
     number of iterations used =            8  plain     mixing
     Exchange-correlation= PBE
                           (   1   4   3   4   0   0   0)

     Using Berry phase electric field
     In a.u.(Ry)  cartesian system of reference
        0.0010000000
        0.0000000000
        0.0000000000
     In a.u.(Ry)  crystal system of reference
        0.0010000000
        0.0000000000
        0.0000000000
     Number of iterative cycles:   3


     celldm(1)=  14.358103  celldm(2)=   0.000000  celldm(3)=   0.000000
     celldm(4)=   0.000000  celldm(5)=   0.000000  celldm(6)=   0.000000

     crystal axes: (cart. coord. in units of alat)
               a(1) = (   1.000000   0.000000   0.000000 )  
               a(2) = (   0.000000   0.906510   0.000000 )  
               a(3) = (   0.000000   0.000000   6.746913 )  

     reciprocal axes: (cart. coord. in units 2 pi/alat)
               b(1) = (  1.000000  0.000000  0.000000 )  
               b(2) = (  0.000000  1.103131  0.000000 )  
               b(3) = (  0.000000  0.000000  0.148216 )  


     PseudoPot. # 1 for C  read from file:
     /home/luw/ONCVPSP/abinit/C_ONCV_PBE_sr.upf
     MD5 check sum: be7deea5c8a9eeec940f0cd39a542f08
     Pseudo is Norm-conserving + core correction, Zval =  4.0
     Generated using ONCVPSP code by D. R. Hamann
     Using radial grid of 1248 points,  4 beta functions with: 
                l(1) =   0
                l(2) =   0
                l(3) =   1
                l(4) =   1

     PseudoPot. # 2 for N  read from file:
     /home/luw/ONCVPSP/abinit/N_ONCV_PBE_sr.upf
     MD5 check sum: 18c6af81dac9c5a2d6d52ed11cf7bfee
     Pseudo is Norm-conserving + core correction, Zval =  5.0
     Generated using ONCVPSP code by D. R. Hamann
     Using radial grid of 1058 points,  4 beta functions with: 
                l(1) =   0
                l(2) =   0
                l(3) =   1
                l(4) =   1

     PseudoPot. # 3 for H  read from file:
     /home/luw/ONCVPSP/abinit/H_ONCV_PBE_sr.upf
     MD5 check sum: 31ee981bebb029a36324f200b357dac4
     Pseudo is Norm-conserving, Zval =  1.0
     Generated using ONCVPSP code by D. R. Hamann
     Using radial grid of 1166 points,  3 beta functions with: 
                l(1) =   0
                l(2) =   0
                l(3) =   1

     PseudoPot. # 4 for O  read from file:
     /home/luw/ONCVPSP/abinit/O_ONCV_PBE_sr.upf
     MD5 check sum: b0122293cc47a814ad0627188f9a6d95
     Pseudo is Norm-conserving + core correction, Zval =  6.0
     Generated using ONCVPSP code by D. R. Hamann
     Using radial grid of  936 points,  5 beta functions with: 
                l(1) =   0
                l(2) =   0
                l(3) =   1
                l(4) =   1
                l(5) =   2

     atomic species   valence    mass     pseudopotential
     C                 4.00    12.01070     C ( 1.00)
     N                 5.00    14.00670     N ( 1.00)
     H                 1.00     1.00794     H ( 1.00)
     O                 6.00    15.99900     O ( 1.00)

     No symmetry found


                                    s                        frac. trans.

      isym =  1     identity                                     

 cryst.   s( 1) = (     1          0          0      )
                  (     0          1          0      )
                  (     0          0          1      )

 cart.    s( 1) = (  1.0000000  0.0000000  0.0000000 )
                  (  0.0000000  1.0000000  0.0000000 )
                  (  0.0000000  0.0000000  1.0000000 )


   Cartesian axes

     site n.     atom                  positions (alat units)
         1        C      tau(   1) = (   0.8466831   0.7045977   0.5813680  )
         2        C      tau(   2) = (   1.0342881   0.7327936   0.6000385  )
         3        C      tau(   3) = (   1.1401786   0.7708164   0.4520536  )
         4        C      tau(   4) = (   1.0600527   0.7897158   0.2820462  )
         5        C      tau(   5) = (   0.7604216   0.7244740   0.4142656  )
         6        C      tau(   6) = (   0.8631327   0.7669172   0.2621066  )
         7        C      tau(   7) = (   1.1435906   0.8359144   0.1041341  )
         8        N      tau(   8) = (   0.9913835   0.8486445  -0.0319027  )
         9        C      tau(   9) = (   0.4870452   0.7662229   2.8203753  )
        10        H      tau(  10) = (   1.0963012   0.7221683   0.7282514  )
        11        H      tau(  11) = (   1.2820643   0.7870920   0.4662466  )
        12        H      tau(  12) = (   0.6186128   0.7105750   0.4024277  )
        13        O      tau(  13) = (   0.6724661   0.7805851   0.0086978  )
        14        C      tau(  14) = (   0.8153675   0.7969833   0.0689086  )
        15        O      tau(  15) = (   1.2970460   0.8523126   0.0780828  )
        16        C      tau(  16) = (   0.7364854   0.6565698   0.7422846  )
        17        C      tau(  17) = (   0.5623795   0.5820244   0.7027029  )
        18        C      tau(  18) = (   0.4366810   0.5595161   0.8347540  )
        19        C      tau(  19) = (   0.4831993   0.6074304   1.0142201  )
        20        C      tau(  20) = (   0.7929717   0.6885928   0.9253182  )
        21        C      tau(  21) = (   0.6659711   0.6687841   1.0623883  )
        22        C      tau(  22) = (   0.3619883   0.6171016   1.1735599  )
        23        N      tau(  23) = (   0.4718863   0.6919620   1.3300581  )
        24        O      tau(  24) = (   0.2101008   0.5774576   1.1698037  )
        25        H      tau(  25) = (   0.5279614   0.5458250   0.5681944  )
        26        H      tau(  26) = (   0.3046474   0.5116446   0.8049090  )
        27        H      tau(  27) = (   0.9244820   0.7381390   0.9538647  )
        28        O      tau(  28) = (   0.7907977   0.7672237   1.3377872  )
        29        C      tau(  29) = (   0.6660912   0.7159922   1.2590054  )
        30        C      tau(  30) = (   0.5841007   0.8396682   2.9657563  )
        31        H      tau(  31) = (   1.0754044   0.9013777   5.6420032  )
        32        H      tau(  32) = (   0.7031199   0.6948558   2.3600080  )
        33        C      tau(  33) = (   0.1947691   0.8193050   2.3464198  )
        34        C      tau(  34) = (   0.2896272   0.7877923   2.1823537  )
        35        C      tau(  35) = (   0.4746641   0.7400333   2.1933428  )
        36        C      tau(  36) = (   0.5629463   0.7284036   2.3551700  )
        37        C      tau(  37) = (   0.4670474   0.7616238   2.5176384  )
        38        C      tau(  38) = (   0.2804287   0.8035015   2.5088548  )
        39        C      tau(  39) = (   1.1733751   0.9239268   6.4364907  )
        40        H      tau(  40) = (   0.2471749   0.6136789   2.7546646  )
        41        O      tau(  41) = (   0.5671189   0.7756146   2.6619745  )
        42        H      tau(  42) = (   0.0131249   0.7179613   1.7522250  )
        43        C      tau(  43) = (   0.1528653   0.7423546   1.7270123  )
        44        C      tau(  44) = (   0.2191528   0.7215622   1.5530717  )
        45        H      tau(  45) = (   0.1299582   0.6156586   3.0549246  )
        46        C      tau(  46) = (   0.4016728   0.7398964   1.5067341  )
        47        O      tau(  47) = (   0.1947860   0.7943376   2.0343436  )
        48        C      tau(  48) = (   0.5083547   0.7997983   1.6502991  )
        49        H      tau(  49) = (   0.6478741   0.8237537   1.6261108  )
        50        C      tau(  50) = (   0.4448282   0.8311988   1.8234366  )
        51        H      tau(  51) = (   0.5362107   0.8839717   1.9211623  )
        52        C      tau(  52) = (   0.2656006   0.7927103   1.8711129  )
        53        H      tau(  53) = (   0.5493925   0.7110043   2.0750270  )
        54        H      tau(  54) = (   0.0552897   0.8558508   2.3435527  )
        55        C      tau(  55) = (   0.5188111   0.8266730   3.1406986  )
        56        C      tau(  56) = (   0.3500371   0.7523799   3.1801740  )
        57        H      tau(  57) = (   0.5991917   0.8809056   3.2468970  )
        58        C      tau(  58) = (   0.2570946   0.6786100   3.0325347  )
        59        H      tau(  59) = (   0.2057095   0.8290812   2.6287147  )
        60        C      tau(  60) = (   0.3225506   0.6795701   2.8579835  )
        61        H      tau(  61) = (   0.1251226   0.6853509   1.4506579  )
        62        C      tau(  62) = (   0.0942058   0.6930011   3.9744887  )
        63        C      tau(  63) = (  -0.0695386   0.6403676   3.8911570  )
        64        C      tau(  64) = (  -0.0917560   0.6398993   3.7072064  )
        65        C      tau(  65) = (   0.0570615   0.6867243   3.5986506  )
        66        C      tau(  66) = (   0.2440650   0.7416212   3.8705042  )
        67        C      tau(  67) = (   0.2282169   0.7447436   3.6830263  )
        68        C      tau(  68) = (   0.0794266   0.6768140   3.3995793  )
        69        N      tau(  69) = (   0.2654095   0.7577651   3.3567183  )
        70        C      tau(  70) = (   1.1826180   0.9673998   6.2552358  )
        71        H      tau(  71) = (  -0.1822124   0.5967506   3.9680316  )
        72        H      tau(  72) = (  -0.2167030   0.6002888   3.6476473  )
        73        H      tau(  73) = (   0.3678157   0.7791909   3.9326021  )
        74        O      tau(  74) = (   0.5017621   0.8537885   3.5616708  )
        75        C      tau(  75) = (   0.3582453   0.7963413   3.5379232  )
        76        O      tau(  76) = (  -0.0209063   0.6047056   3.3031390  )
        77        H      tau(  77) = (   0.0785216   0.7826544   5.1010605  )
        78        C      tau(  78) = (   0.1050367   0.7020232   4.1739873  )
        79        C      tau(  79) = (  -0.0678832   0.6872320   4.2581733  )
        80        C      tau(  80) = (  -0.0894810   0.6968508   4.4404554  )
        81        C      tau(  81) = (   0.0637472   0.7303736   4.5493204  )
        82        C      tau(  82) = (   0.2628627   0.7319254   4.2816597  )
        83        C      tau(  83) = (   0.2443025   0.7475797   4.4680850  )
        84        C      tau(  84) = (   0.0722872   0.7670264   4.7465240  )
        85        N      tau(  85) = (   0.2671017   0.8134893   4.7925330  )
        86        O      tau(  86) = (  -0.0520121   0.7621473   4.8419305  )
        87        H      tau(  87) = (  -0.1866218   0.6721959   4.1800749  )
        88        H      tau(  88) = (  -0.2196522   0.6853130   4.4988408  )
        89        H      tau(  89) = (   0.3926830   0.7462593   4.2212622  )
        90        O      tau(  90) = (   0.5297214   0.7955275   4.5988753  )
        91        C      tau(  91) = (   0.3749518   0.7890925   4.6166826  )
        92        C      tau(  92) = (   1.0321843   0.9471704   6.1403167  )
        93        O      tau(  93) = (   1.0457614   0.9918498   5.9707092  )
        94        H      tau(  94) = (   0.6926177   1.0727934   6.0356388  )
        95        C      tau(  95) = (   0.8010935   0.8856692   5.5646746  )
        96        C      tau(  96) = (   0.6191059   0.9061902   5.6174015  )
        97        C      tau(  97) = (   0.5843516   0.9729145   5.7937885  )
        98        C      tau(  98) = (   0.7235425   1.0150685   5.9085141  )
        99        C      tau(  99) = (   0.9056959   0.9812542   5.8612400  )
       100        C      tau( 100) = (   0.9393634   0.9218719   5.6829959  )
       101        H      tau( 101) = (   0.7450544   0.7892074   6.4575427  )
       102        H      tau( 102) = (   1.2936073   0.9391988   6.5147662  )
       103        H      tau( 103) = (   1.3072982   1.0161126   6.2015097  )
       104        H      tau( 104) = (   0.1775631   0.7956708   5.4056670  )
       105        C      tau( 105) = (   0.2743405   0.8133983   5.3013531  )
       106        C      tau( 106) = (   0.2183746   0.8067625   5.1235064  )
       107        C      tau( 107) = (   0.3347942   0.8281383   4.9762395  )
       108        O      tau( 108) = (   0.4769354   0.8613012   5.5232974  )
       109        C      tau( 109) = (   0.5139486   0.8620673   5.0253432  )
       110        H      tau( 110) = (   0.6105415   0.8825367   4.9206010  )
       111        C      tau( 111) = (   0.5753064   0.8722141   5.2015227  )
       112        H      tau( 112) = (   0.7141762   0.9011870   5.2227267  )
       113        C      tau( 113) = (   0.4566378   0.8464360   5.3476458  )
       114        H      tau( 114) = (   0.4481638   0.9938068   5.8362727  )
       115        H      tau( 115) = (   0.8322356   0.8370987   5.4338754  )
       116        C      tau( 116) = (   0.8763970   0.8740198   6.2206082  )
       117        C      tau( 117) = (   0.8682880   0.8403196   6.4040555  )
       118        H      tau( 118) = (   0.7605514   0.8429528   6.1417469  )
       119        C      tau( 119) = (   1.0141911   0.8675194   6.5211420  )
       120        H      tau( 120) = (   0.7087997   0.9047996   2.9380684  )
       121        C      tau( 121) = (   0.8587874   1.2557206   0.0377217  )
       122        C      tau( 122) = (   1.0434397   1.3038190   0.0235156  )
       123        C      tau( 123) = (   1.1218299   1.3463071  -0.1389649  )
       124        C      tau( 124) = (   1.0173208   1.3421980  -0.2972049  )
       125        C      tau( 125) = (   0.7475124   1.2579035  -0.1166306  )
       126        C      tau( 126) = (   0.8236976   1.2973989  -0.2833450  )
       127        C      tau( 127) = (   1.0590180   1.3857805  -0.4886356  )
       128        N      tau( 128) = (   0.8825226   1.3754842  -0.5958640  )
       129        C      tau( 129) = (   0.7805455   1.1979654   2.3672824  )
       130        H      tau( 130) = (   1.1252835   1.3076582   0.1411442  )
       131        H      tau( 131) = (   1.2609859   1.3833786  -0.1448362  )
       132        H      tau( 132) = (   0.6066279   1.2308657  -0.1104582  )
       133        O      tau( 133) = (   0.5900006   1.2677449  -0.4986742  )
       134        C      tau( 134) = (   0.7373455   1.3098717  -0.4666033  )
       135        O      tau( 135) = (   1.2005674   1.4267573  -0.5416309  )
       136        C      tau( 136) = (   0.7814288   1.2036604   0.2120495  )
       137        C      tau( 137) = (   0.5986488   1.1436553   0.2073598  )
       138        C      tau( 138) = (   0.5065713   1.0913002   0.3586451  )
       139        C      tau( 139) = (   0.5962684   1.0986050   0.5260684  )
       140        C      tau( 140) = (   0.8774392   1.2083009   0.3774823  )
       141        C      tau( 141) = (   0.7864720   1.1589539   0.5345178  )
       142        C      tau( 142) = (   0.5244154   1.0589932   0.7092790  )
       143        N      tau( 143) = (   0.6821209   1.0886012   0.8399559  )
       144        O      tau( 144) = (   0.3745486   1.0248108   0.7400199  )
       145        H      tau( 145) = (   0.5273296   1.1366452   0.0840715  )
       146        H      tau( 146) = (   0.3698461   1.0480051   0.3507669  )
       147        H      tau( 147) = (   1.0146157   1.2513984   0.3842700  )
       148        O      tau( 148) = (   0.9784972   1.2149124   0.7798520  )
       149        C      tau( 149) = (   0.8419147   1.1590407   0.7280883  )
       150        C      tau( 150) = (   0.8398328   1.2743880   2.5306553  )
       151        H      tau( 151) = (   0.5305606   1.2028409   5.4857042  )
       152        H      tau( 152) = (   1.0027401   1.0218176   1.9465755  )
       153        C      tau( 153) = (   0.5827394   1.3136458   1.8624071  )
       154        C      tau( 154) = (   0.6656383   1.2222447   1.7152977  )
       155        C      tau( 155) = (   0.8210825   1.1167372   1.7486061  )
       156        C      tau( 156) = (   0.8862381   1.1012245   1.9213312  )
       157        C      tau( 157) = (   0.8022276   1.1882188   2.0693911  )
       158        C      tau( 158) = (   0.6453270   1.2916980   2.0349797  )
       159        C      tau( 159) = (   1.0162930   1.3782501   5.8425440  )
       160        H      tau( 160) = (   0.5522142   1.0693408   2.2416700  )
       161        O      tau( 161) = (   0.8864055   1.1891993   2.2256569  )
       162        H      tau( 162) = (   0.3410736   1.0822316   1.3604455  )
       163        C      tau( 163) = (   0.4696610   1.1072996   1.3009698  )
       164        C      tau( 164) = (   0.4922616   1.0908087   1.1169355  )
       165        H      tau( 165) = (   0.3526857   1.1112918   2.4920982  )
       166        C      tau( 166) = (   0.6591752   1.1186019   1.0320561  )
       167        O      tau( 167) = (   0.5630387   1.2175779   1.5724100  )
       168        C      tau( 168) = (   0.8012448   1.1704134   1.1457154  )
       169        H      tau( 169) = (   0.9308629   1.1953764   1.0879062  )
       170        C      tau( 170) = (   0.7840929   1.1910668   1.3299136  )
       171        H      tau( 171) = (   0.8976789   1.2319749   1.4079959  )
       172        C      tau( 172) = (   0.6150600   1.1619024   1.4117354  )
       173        H      tau( 173) = (   0.8870751   1.0477984   1.6411659  )
       174        H      tau( 174) = (   0.4673280   1.3955822   1.8368524  )
       175        C      tau( 175) = (   0.7255555   1.2851471   2.6778936  )
       176        C      tau( 176) = (   0.5470273   1.2237914   2.6737445  )
       177        H      tau( 177) = (   0.7757919   1.3441014   2.7995240  )
       178        C      tau( 178) = (   0.4885716   1.1557252   2.5070933  )
       179        H      tau( 179) = (   0.5764943   1.3562246   2.1431728  )
       180        C      tau( 180) = (   0.6018588   1.1333598   2.3607000  )
       181        H      tau( 181) = (   0.3771873   1.0543631   1.0383090  )
       182        C      tau( 182) = (   0.1207469   1.1425371   3.3943857  )
       183        C      tau( 183) = (  -0.0159362   1.0812380   3.2725337  )
       184        C      tau( 184) = (   0.0108233   1.0795432   3.0904467  )
       185        C      tau( 185) = (   0.1817553   1.1296214   3.0229179  )
       186        C      tau( 186) = (   0.2968256   1.1912141   3.3292673  )
       187        C      tau( 187) = (   0.3298330   1.1846626   3.1443564  )
       188        C      tau( 188) = (   0.2393200   1.1448799   2.8312514  )
       189        N      tau( 189) = (   0.4323612   1.2153949   2.8323153  )
       190        C      tau( 190) = (   1.0063021   1.3748093   5.6559179  )
       191        H      tau( 191) = (  -0.1436434   1.0395301   3.3207339  )
       192        H      tau( 192) = (  -0.0942737   1.0436376   3.0005030  )
       193        H      tau( 193) = (   0.4004048   1.2354632   3.4180945  )
       194        O      tau( 194) = (   0.6300361   1.2728337   3.0890117  )
       195        C      tau( 195) = (   0.4901848   1.2333211   3.0321545  )
       196        O      tau( 196) = (   0.1455192   1.1159347   2.7089687  )
       197        H      tau( 197) = (  -0.0998711   1.1649816   4.4970838  )
       198        C      tau( 198) = (   0.0655757   1.1508461   3.5857261  )
       199        C      tau( 199) = (  -0.1149632   1.1138473   3.6378268  )
       200        C      tau( 200) = (  -0.1640710   1.1022495   3.8157572  )
       201        C      tau( 201) = (  -0.0309339   1.1330653   3.9473681  )
       202        C      tau( 202) = (   0.1989801   1.1921966   3.7131144  )
       203        C      tau( 203) = (   0.1565125   1.1794257   3.8954638  )
       204        C      tau( 204) = (  -0.0466330   1.1260190   4.1471440  )
       205        N      tau( 205) = (   0.1413620   1.1563082   4.2224686  )
       206        O      tau( 206) = (  -0.1812037   1.1049054   4.2251455  )
       207        H      tau( 207) = (  -0.2177883   1.0916050   3.5407739  )
       208        H      tau( 208) = (  -0.2989249   1.0692891   3.8548137  )
       209        H      tau( 209) = (   0.3325349   1.2255798   3.6725668  )
       210        O      tau( 210) = (   0.4230087   1.2299411   4.0607843  )
       211        C      tau( 211) = (   0.2709571   1.1959893   4.0606618  )
       212        C      tau( 212) = (   0.8383525   1.3854063   5.5671725  )
       213        O      tau( 213) = (   0.8415573   1.3752413   5.3897138  )
       214        H      tau( 214) = (   0.8300333   1.4486414   5.0574463  )
       215        C      tau( 215) = (   0.3979012   1.2277233   5.2359208  )
       216        C      tau( 216) = (   0.4054544   1.2835272   5.0528483  )
       217        C      tau( 217) = (   0.5652857   1.3676666   4.9918259  )
       218        C      tau( 218) = (   0.7093112   1.3879553   5.1065762  )
       219        C      tau( 219) = (   0.7006642   1.3370819   5.2910919  )
       220        C      tau( 220) = (   0.5410454   1.2516701   5.3510492  )
       221        H      tau( 221) = (   0.5817996   1.4339915   5.9420055  )
       222        H      tau( 222) = (   1.1463257   1.3648509   5.9027939  )
       223        H      tau( 223) = (   1.1270173   1.3617089   5.5786877  )
       224        H      tau( 224) = (  -0.0482616   1.2167810   4.8116533  )
       225        C      tau( 225) = (   0.0641194   1.2138097   4.7215980  )
       226        C      tau( 226) = (   0.0360190   1.1847422   4.5402473  )
       227        C      tau( 227) = (   0.1763616   1.1829443   4.4124787  )
       228        O      tau( 228) = (   0.2559105   1.2512899   4.9641494  )
       229        C      tau( 229) = (   0.3508772   1.2061428   4.4814786  )
       230        H      tau( 230) = (   0.4629329   1.2028872   4.3906922  )
       231        C      tau( 231) = (   0.3845543   1.2262645   4.6634997  )
       232        H      tau( 232) = (   0.5205209   1.2331708   4.7073246  )
       233        C      tau( 233) = (   0.2416163   1.2353015   4.7886081  )
       234        H      tau( 234) = (   0.5766773   1.4184017   4.8578025  )
       235        H      tau( 235) = (   0.2784978   1.1626036   5.2831118  )
       236        C      tau( 236) = (   0.6867411   1.4119729   5.6781928  )
       237        C      tau( 237) = (   0.7018434   1.4137528   5.8643779  )
       238        H      tau( 238) = (   0.5574982   1.4336302   5.6191233  )
       239        C      tau( 239) = (   0.8658742   1.3919647   5.9547868  )
       240        H      tau( 240) = (   0.9740813   1.3253013   2.5407387  )

   Crystallographic axes

     site n.     atom                  positions (cryst. coord.)
         1        C      tau(   1) = (  0.8466831  0.7772638  0.0861680  )
         2        C      tau(   2) = (  1.0342881  0.8083676  0.0889353  )
         3        C      tau(   3) = (  1.1401786  0.8503116  0.0670016  )
         4        C      tau(   4) = (  1.0600527  0.8711602  0.0418037  )
         5        C      tau(   5) = (  0.7604216  0.7991900  0.0614008  )
         6        C      tau(   6) = (  0.8631327  0.8460103  0.0388484  )
         7        C      tau(   7) = (  1.1435906  0.9221234  0.0154343  )
         8        N      tau(   8) = (  0.9913835  0.9361663 -0.0047285  )
         9        C      tau(   9) = (  0.4870452  0.8452444  0.4180246  )
        10        H      tau(  10) = (  1.0963012  0.7966464  0.1079385  )
        11        H      tau(  11) = (  1.2820643  0.8682658  0.0691052  )
        12        H      tau(  12) = (  0.6186128  0.7838575  0.0596462  )
        13        O      tau(  13) = (  0.6724661  0.8610879  0.0012892  )
        14        C      tau(  14) = (  0.8153675  0.8791772  0.0102133  )
        15        O      tau(  15) = (  1.2970460  0.9402127  0.0115731  )
        16        C      tau(  16) = (  0.7364854  0.7242827  0.1100184  )
        17        C      tau(  17) = (  0.5623795  0.6420493  0.1041518  )
        18        C      tau(  18) = (  0.4366810  0.6172198  0.1237238  )
        19        C      tau(  19) = (  0.4831993  0.6700755  0.1503236  )
        20        C      tau(  20) = (  0.7929717  0.7596082  0.1371469  )
        21        C      tau(  21) = (  0.6659711  0.7377567  0.1574629  )
        22        C      tau(  22) = (  0.3619883  0.6807440  0.1739403  )
        23        N      tau(  23) = (  0.4718863  0.7633249  0.1971358  )
        24        O      tau(  24) = (  0.2101008  0.6370116  0.1733835  )
        25        H      tau(  25) = (  0.5279614  0.6021166  0.0842155  )
        26        H      tau(  26) = (  0.3046474  0.5644112  0.1193003  )
        27        H      tau(  27) = (  0.9244820  0.8142642  0.1413780  )
        28        O      tau(  28) = (  0.7907977  0.8463484  0.1982814  )
        29        C      tau(  29) = (  0.6660912  0.7898334  0.1866047  )
        30        C      tau(  30) = (  0.5841007  0.9262642  0.4395723  )
        31        H      tau(  31) = (  1.0754044  0.9943380  0.8362348  )
        32        H      tau(  32) = (  0.7031199  0.7665171  0.3497908  )
        33        C      tau(  33) = (  0.1947691  0.9038010  0.3477768  )
        34        C      tau(  34) = (  0.2896272  0.8690383  0.3234596  )
        35        C      tau(  35) = (  0.4746641  0.8163539  0.3250884  )
        36        C      tau(  36) = (  0.5629463  0.8035248  0.3490737  )
        37        C      tau(  37) = (  0.4670474  0.8401710  0.3731541  )
        38        C      tau(  38) = (  0.2804287  0.8863676  0.3718523  )
        39        C      tau(  39) = (  1.1733751  1.0192125  0.9539905  )
        40        H      tau(  40) = (  0.2471749  0.6769684  0.4082852  )
        41        O      tau(  41) = (  0.5671189  0.8556047  0.3945470  )
        42        H      tau(  42) = (  0.0131249  0.7920055  0.2597077  )
        43        C      tau(  43) = (  0.1528653  0.8189146  0.2559707  )
        44        C      tau(  44) = (  0.2191528  0.7959778  0.2301900  )
        45        H      tau(  45) = (  0.1299582  0.6791522  0.4527885  )
        46        C      tau(  46) = (  0.4016728  0.8162029  0.2233220  )
        47        O      tau(  47) = (  0.1947860  0.8762586  0.3015221  )
        48        C      tau(  48) = (  0.5083547  0.8822825  0.2446006  )
        49        H      tau(  49) = (  0.6478741  0.9087085  0.2410155  )
        50        C      tau(  50) = (  0.4448282  0.9169214  0.2702624  )
        51        H      tau(  51) = (  0.5362107  0.9751368  0.2847469  )
        52        C      tau(  52) = (  0.2656006  0.8744636  0.2773287  )
        53        H      tau(  53) = (  0.5493925  0.7843311  0.3075521  )
        54        H      tau(  54) = (  0.0552897  0.9441158  0.3473519  )
        55        C      tau(  55) = (  0.5188111  0.9119289  0.4655016  )
        56        C      tau(  56) = (  0.3500371  0.8299738  0.4713525  )
        57        H      tau(  57) = (  0.5991917  0.9717545  0.4812419  )
        58        C      tau(  58) = (  0.2570946  0.7485959  0.4494700  )
        59        H      tau(  59) = (  0.2057095  0.9145854  0.3896174  )
        60        C      tau(  60) = (  0.3225506  0.7496551  0.4235987  )
        61        H      tau(  61) = (  0.1251226  0.7560320  0.2150106  )
        62        C      tau(  62) = (  0.0942058  0.7644712  0.5890826  )
        63        C      tau(  63) = ( -0.0695386  0.7064095  0.5767315  )
        64        C      tau(  64) = ( -0.0917560  0.7058930  0.5494671  )
        65        C      tau(  65) = (  0.0570615  0.7575470  0.5333774  )
        66        C      tau(  66) = (  0.2440650  0.8181056  0.5736704  )
        67        C      tau(  67) = (  0.2282169  0.8215500  0.5458832  )
        68        C      tau(  68) = (  0.0794266  0.7466147  0.5038718  )
        69        N      tau(  69) = (  0.2654095  0.8359144  0.4975191  )
        70        C      tau(  70) = (  1.1826180  1.0671689  0.9271256  )
        71        H      tau(  71) = ( -0.1822124  0.6582943  0.5881255  )
        72        H      tau(  72) = ( -0.2167030  0.6621974  0.5406395  )
        73        H      tau(  73) = (  0.3678157  0.8595499  0.5828743  )
        74        O      tau(  74) = (  0.5017621  0.9418408  0.5278964  )
        75        C      tau(  75) = (  0.3582453  0.8784690  0.5243766  )
        76        O      tau(  76) = ( -0.0209063  0.6670697  0.4895778  )
        77        H      tau(  77) = (  0.0785216  0.8633705  0.7560585  )
        78        C      tau(  78) = (  0.1050367  0.7744238  0.6186514  )
        79        C      tau(  79) = ( -0.0678832  0.7581072  0.6311291  )
        80        C      tau(  80) = ( -0.0894810  0.7687179  0.6581463  )
        81        C      tau(  81) = (  0.0637472  0.8056980  0.6742818  )
        82        C      tau(  82) = (  0.2628627  0.8074098  0.6346102  )
        83        C      tau(  83) = (  0.2443025  0.8246785  0.6622414  )
        84        C      tau(  84) = (  0.0722872  0.8461308  0.7035105  )
        85        N      tau(  85) = (  0.2671017  0.8973855  0.7103298  )
        86        O      tau(  86) = ( -0.0520121  0.8407486  0.7176513  )
        87        H      tau(  87) = ( -0.1866218  0.7415204  0.6195537  )
        88        H      tau(  88) = ( -0.2196522  0.7559902  0.6667999  )
        89        H      tau(  89) = (  0.3926830  0.8232220  0.6256583  )
        90        O      tau(  90) = (  0.5297214  0.8775713  0.6816266  )
        91        C      tau(  91) = (  0.3749518  0.8704726  0.6842659  )
        92        C      tau(  92) = (  1.0321843  1.0448533  0.9100928  )
        93        O      tau(  93) = (  1.0457614  1.0941405  0.8849542  )
        94        H      tau(  94) = (  0.6926177  1.1834320  0.8945778  )
        95        C      tau(  95) = (  0.8010935  0.9770094  0.8247734  )
        96        C      tau(  96) = (  0.6191059  0.9996468  0.8325884  )
        97        C      tau(  97) = (  0.5843516  1.0732524  0.8587318  )
        98        C      tau(  98) = (  0.7235425  1.1197538  0.8757359  )
        99        C      tau(  99) = (  0.9056959  1.0824522  0.8687292  )
       100        C      tau( 100) = (  0.9393634  1.0169457  0.8423106  )
       101        H      tau( 101) = (  0.7450544  0.8705994  0.9571107  )
       102        H      tau( 102) = (  1.2936073  1.0360596  0.9655922  )
       103        H      tau( 103) = (  1.3072982  1.1209056  0.9191626  )
       104        H      tau( 104) = (  0.1775631  0.8777294  0.8012060  )
       105        C      tau( 105) = (  0.2743405  0.8972851  0.7857450  )
       106        C      tau( 106) = (  0.2183746  0.8899649  0.7593853  )
       107        C      tau( 107) = (  0.3347942  0.9135452  0.7375580  )
       108        O      tau( 108) = (  0.4769354  0.9501283  0.8186407  )
       109        C      tau( 109) = (  0.5139486  0.9509734  0.7448359  )
       110        H      tau( 110) = (  0.6105415  0.9735538  0.7293115  )
       111        C      tau( 111) = (  0.5753064  0.9621666  0.7709486  )
       112        H      tau( 112) = (  0.7141762  0.9941276  0.7740913  )
       113        C      tau( 113) = (  0.4566378  0.9337301  0.7926063  )
       114        H      tau( 114) = (  0.4481638  1.0962993  0.8650286  )
       115        H      tau( 115) = (  0.8322356  0.9234298  0.8053869  )
       116        C      tau( 116) = (  0.8763970  0.9641586  0.9219933  )
       117        C      tau( 117) = (  0.8682880  0.9269828  0.9491831  )
       118        H      tau( 118) = (  0.7605514  0.9298875  0.9103048  )
       119        C      tau( 119) = (  1.0141911  0.9569878  0.9665372  )
       120        H      tau( 120) = (  0.7087997  0.9981127  0.4354686  )
       121        C      tau( 121) = (  0.8587874  1.3852246  0.0055910  )
       122        C      tau( 122) = (  1.0434397  1.4382835  0.0034854  )
       123        C      tau( 123) = (  1.1218299  1.4851535 -0.0205968  )
       124        C      tau( 124) = (  1.0173208  1.4806206 -0.0440505  )
       125        C      tau( 125) = (  0.7475124  1.3876327 -0.0172865  )
       126        C      tau( 126) = (  0.8236976  1.4312013 -0.0419962  )
       127        C      tau( 127) = (  1.0590180  1.5286978 -0.0724236  )
       128        N      tau( 128) = (  0.8825226  1.5173397 -0.0883165  )
       129        C      tau( 129) = (  0.7805455  1.3215130  0.3508690  )
       130        H      tau( 130) = (  1.1252835  1.4425186  0.0209198  )
       131        H      tau( 131) = (  1.2609859  1.5260481 -0.0214670  )
       132        H      tau( 132) = (  0.6066279  1.3578064 -0.0163717  )
       133        O      tau( 133) = (  0.5900006  1.3984891 -0.0739115  )
       134        C      tau( 134) = (  0.7373455  1.4449604 -0.0691580  )
       135        O      tau( 135) = (  1.2005674  1.5739006 -0.0802783  )
       136        C      tau( 136) = (  0.7814288  1.3277954  0.0314291  )
       137        C      tau( 137) = (  0.5986488  1.2616019  0.0307340  )
       138        C      tau( 138) = (  0.5065713  1.2038474  0.0531569  )
       139        C      tau( 139) = (  0.5962684  1.2119055  0.0779717  )
       140        C      tau( 140) = (  0.8774392  1.3329145  0.0559489  )
       141        C      tau( 141) = (  0.7864720  1.2784783  0.0792241  )
       142        C      tau( 142) = (  0.5244154  1.1682085  0.1051264  )
       143        N      tau( 143) = (  0.6821209  1.2008700  0.1244948  )
       144        O      tau( 144) = (  0.3745486  1.1305008  0.1096827  )
       145        H      tau( 145) = (  0.5273296  1.2538689  0.0124607  )
       146        H      tau( 146) = (  0.3698461  1.1560872  0.0519892  )
       147        H      tau( 147) = (  1.0146157  1.3804567  0.0569549  )
       148        O      tau( 148) = (  0.9784972  1.3402078  0.1155865  )
       149        C      tau( 149) = (  0.8419147  1.2785740  0.1079143  )
       150        C      tau( 150) = (  0.8398328  1.4058173  0.3750834  )
       151        H      tau( 151) = (  0.5305606  1.3268914  0.8130688  )
       152        H      tau( 152) = (  1.0027401  1.1271990  0.2885135  )
       153        C      tau( 153) = (  0.5827394  1.4491238  0.2760384  )
       154        C      tau( 154) = (  0.6656383  1.3482963  0.2542344  )
       155        C      tau( 155) = (  0.8210825  1.2319077  0.2591713  )
       156        C      tau( 156) = (  0.8862381  1.2147952  0.2847719  )
       157        C      tau( 157) = (  0.8022276  1.3107613  0.3067167  )
       158        C      tau( 158) = (  0.6453270  1.4249125  0.3016164  )
       159        C      tau( 159) = (  1.0162930  1.5203908  0.8659581  )
       160        H      tau( 160) = (  0.5522142  1.1796233  0.3322512  )
       161        O      tau( 161) = (  0.8864055  1.3118430  0.3298778  )
       162        H      tau( 162) = (  0.3410736  1.1938435  0.2016397  )
       163        C      tau( 163) = (  0.4696610  1.2214968  0.1928245  )
       164        C      tau( 164) = (  0.4922616  1.2033052  0.1655476  )
       165        H      tau( 165) = (  0.3526857  1.2259007  0.3693687  )
       166        C      tau( 166) = (  0.6591752  1.2339647  0.1529672  )
       167        O      tau( 167) = (  0.5630387  1.3431483  0.2330562  )
       168        C      tau( 168) = (  0.8012448  1.2911197  0.1698133  )
       169        H      tau( 169) = (  0.9308629  1.3186571  0.1612450  )
       170        C      tau( 170) = (  0.7840929  1.3139030  0.1971144  )
       171        H      tau( 171) = (  0.8976789  1.3590301  0.2086874  )
       172        C      tau( 172) = (  0.6150600  1.2817308  0.2092417  )
       173        H      tau( 173) = (  0.8870751  1.1558591  0.2432469  )
       174        H      tau( 174) = (  0.4673280  1.5395104  0.2722508  )
       175        C      tau( 175) = (  0.7255555  1.4176859  0.3969065  )
       176        C      tau( 176) = (  0.5470273  1.3500026  0.3962915  )
       177        H      tau( 177) = (  0.7757919  1.4827203  0.4149341  )
       178        C      tau( 178) = (  0.4885716  1.2749166  0.3715912  )
       179        H      tau( 179) = (  0.5764943  1.4960938  0.3176524  )
       180        C      tau( 180) = (  0.6018588  1.2502446  0.3498934  )
       181        H      tau( 181) = (  0.3771873  1.1631009  0.1538939  )
       182        C      tau( 182) = (  0.1207469  1.2603684  0.5031020  )
       183        C      tau( 183) = ( -0.0159362  1.1927475  0.4850416  )
       184        C      tau( 184) = (  0.0108233  1.1908779  0.4580534  )
       185        C      tau( 185) = (  0.1817553  1.2461207  0.4480446  )
       186        C      tau( 186) = (  0.2968256  1.3140655  0.4934505  )
       187        C      tau( 187) = (  0.3298330  1.3068384  0.4660437  )
       188        C      tau( 188) = (  0.2393200  1.2629529  0.4196366  )
       189        N      tau( 189) = (  0.4323612  1.3407401  0.4197943  )
       190        C      tau( 190) = (  1.0063021  1.5165951  0.8382972  )
       191        H      tau( 191) = ( -0.1436434  1.1467382  0.4921857  )
       192        H      tau( 192) = ( -0.0942737  1.1512693  0.4447224  )
       193        H      tau( 193) = (  0.4004048  1.3628781  0.5066161  )
       194        O      tau( 194) = (  0.6300361  1.4041026  0.4578408  )
       195        C      tau( 195) = (  0.4901848  1.3605150  0.4494136  )
       196        O      tau( 196) = (  0.1455192  1.2310225  0.4015123  )
       197        H      tau( 197) = ( -0.0998711  1.2851276  0.6665395  )
       198        C      tau( 198) = (  0.0655757  1.2695344  0.5314617  )
       199        C      tau( 199) = ( -0.1149632  1.2287198  0.5391839  )
       200        C      tau( 200) = ( -0.1640710  1.2159259  0.5655560  )
       201        C      tau( 201) = ( -0.0309339  1.2499198  0.5850629  )
       202        C      tau( 202) = (  0.1989801  1.3151493  0.5503427  )
       203        C      tau( 203) = (  0.1565125  1.3010614  0.5773698  )
       204        C      tau( 204) = ( -0.0466330  1.2421468  0.6146728  )
       205        N      tau( 205) = (  0.1413620  1.2755598  0.6258371  )
       206        O      tau( 206) = ( -0.1812037  1.2188557  0.6262339  )
       207        H      tau( 207) = ( -0.2177883  1.2041836  0.5247991  )
       208        H      tau( 208) = ( -0.2989249  1.1795662  0.5713448  )
       209        H      tau( 209) = (  0.3325349  1.3519754  0.5443329  )
       210        O      tau( 210) = (  0.4230087  1.3567865  0.6018729  )
       211        C      tau( 211) = (  0.2709571  1.3193332  0.6018548  )
       212        C      tau( 212) = (  0.8383525  1.5282851  0.8251437  )
       213        O      tau( 213) = (  0.8415573  1.5170716  0.7988415  )
       214        H      tau( 214) = (  0.8300333  1.5980417  0.7495941  )
       215        C      tau( 215) = (  0.3979012  1.3543399  0.7760469  )
       216        C      tau( 216) = (  0.4054544  1.4158990  0.7489126  )
       217        C      tau( 217) = (  0.5652857  1.5087158  0.7398681  )
       218        C      tau( 218) = (  0.7093112  1.5310969  0.7568760  )
       219        C      tau( 219) = (  0.7006642  1.4749769  0.7842241  )
       220        C      tau( 220) = (  0.5410454  1.3807565  0.7931108  )
       221        H      tau( 221) = (  0.5817996  1.5818808  0.8806999  )
       222        H      tau( 222) = (  1.1463257  1.5056097  0.8748881  )
       223        H      tau( 223) = (  1.1270173  1.5021436  0.8268504  )
       224        H      tau( 224) = ( -0.0482616  1.3422692  0.7131637  )
       225        C      tau( 225) = (  0.0641194  1.3389914  0.6998161  )
       226        C      tau( 226) = (  0.0360190  1.3069262  0.6729370  )
       227        C      tau( 227) = (  0.1763616  1.3049428  0.6539996  )
       228        O      tau( 228) = (  0.2559105  1.3803370  0.7357660  )
       229        C      tau( 229) = (  0.3508772  1.3305338  0.6642265  )
       230        H      tau( 230) = (  0.4629329  1.3269425  0.6507705  )
       231        C      tau( 231) = (  0.3845543  1.3527307  0.6912050  )
       232        H      tau( 232) = (  0.5205209  1.3603492  0.6977005  )
       233        C      tau( 233) = (  0.2416163  1.3626997  0.7097480  )
       234        H      tau( 234) = (  0.5766773  1.5646832  0.7200037  )
       235        H      tau( 235) = (  0.2784978  1.2825044  0.7830414  )
       236        C      tau( 236) = (  0.6867411  1.5575914  0.8415987  )
       237        C      tau( 237) = (  0.7018434  1.5595549  0.8691943  )
       238        H      tau( 238) = (  0.5574982  1.5814823  0.8328436  )
       239        C      tau( 239) = (  0.8658742  1.5355197  0.8825943  )
       240        H      tau( 240) = (  0.9740813  1.4619813  0.3765780  )

     number of k points=    18
                       cart. coord. in units 2pi/alat
        k(    1) = (   0.0000000   0.0000000   0.0000000), wk =   0.1111111
        k(    2) = (   0.0000000   0.0000000   0.0741080), wk =   0.1111111
        k(    3) = (   0.0000000   0.3677104   0.0000000), wk =   0.1111111
        k(    4) = (   0.0000000   0.3677104   0.0741080), wk =   0.1111111
        k(    5) = (   0.0000000   0.7354208   0.0000000), wk =   0.1111111
        k(    6) = (   0.0000000   0.7354208   0.0741080), wk =   0.1111111
        k(    7) = (   0.3333333   0.0000000   0.0000000), wk =   0.1111111
        k(    8) = (   0.3333333   0.0000000   0.0741080), wk =   0.1111111
        k(    9) = (   0.3333333   0.3677104   0.0000000), wk =   0.1111111
        k(   10) = (   0.3333333   0.3677104   0.0741080), wk =   0.1111111
        k(   11) = (   0.3333333   0.7354208   0.0000000), wk =   0.1111111
        k(   12) = (   0.3333333   0.7354208   0.0741080), wk =   0.1111111
        k(   13) = (   0.6666667   0.0000000   0.0000000), wk =   0.1111111
        k(   14) = (   0.6666667   0.0000000   0.0741080), wk =   0.1111111
        k(   15) = (   0.6666667   0.3677104   0.0000000), wk =   0.1111111
        k(   16) = (   0.6666667   0.3677104   0.0741080), wk =   0.1111111
        k(   17) = (   0.6666667   0.7354208   0.0000000), wk =   0.1111111
        k(   18) = (   0.6666667   0.7354208   0.0741080), wk =   0.1111111

                       cryst. coord.
        k(    1) = (   0.0000000   0.0000000   0.0000000), wk =   0.1111111
        k(    2) = (   0.0000000   0.0000000   0.5000000), wk =   0.1111111
        k(    3) = (   0.0000000   0.3333333   0.0000000), wk =   0.1111111
        k(    4) = (   0.0000000   0.3333333   0.5000000), wk =   0.1111111
        k(    5) = (   0.0000000   0.6666667   0.0000000), wk =   0.1111111
        k(    6) = (   0.0000000   0.6666667   0.5000000), wk =   0.1111111
        k(    7) = (   0.3333333   0.0000000   0.0000000), wk =   0.1111111
        k(    8) = (   0.3333333   0.0000000   0.5000000), wk =   0.1111111
        k(    9) = (   0.3333333   0.3333333   0.0000000), wk =   0.1111111
        k(   10) = (   0.3333333   0.3333333   0.5000000), wk =   0.1111111
        k(   11) = (   0.3333333   0.6666667   0.0000000), wk =   0.1111111
        k(   12) = (   0.3333333   0.6666667   0.5000000), wk =   0.1111111
        k(   13) = (   0.6666667   0.0000000   0.0000000), wk =   0.1111111
        k(   14) = (   0.6666667   0.0000000   0.5000000), wk =   0.1111111
        k(   15) = (   0.6666667   0.3333333   0.0000000), wk =   0.1111111
        k(   16) = (   0.6666667   0.3333333   0.5000000), wk =   0.1111111
        k(   17) = (   0.6666667   0.6666667   0.0000000), wk =   0.1111111
        k(   18) = (   0.6666667   0.6666667   0.5000000), wk =   0.1111111

     Dense  grid:   618459 G-vectors     FFT dimensions: (  60,  54, 400)

     Dynamical RAM for                 wfc:      14.75 MB

     Dynamical RAM for     wfc (w. buffer):     280.18 MB

     Dynamical RAM for           str. fact:       1.18 MB

     Dynamical RAM for           local pot:       0.00 MB

     Dynamical RAM for          nlocal pot:      67.24 MB

     Dynamical RAM for                qrad:       2.90 MB

     Dynamical RAM for          rho,v,vnew:       1.85 MB

     Dynamical RAM for               rhoin:       0.62 MB

     Dynamical RAM for            rho*nmix:       4.72 MB

     Dynamical RAM for           G-vectors:       1.25 MB

     Dynamical RAM for          h,s,v(r/c):       1.83 MB

     Dynamical RAM for          <psi|beta>:      11.13 MB

     Dynamical RAM for                 psi:      29.49 MB

     Dynamical RAM for                hpsi:      29.49 MB

     Dynamical RAM for      wfcinit/wfcrot:      67.53 MB

     Estimated static dynamical RAM per process >     358.30 MB

     Estimated max dynamical RAM per process >     434.96 MB

     Estimated total dynamical RAM >      13.59 GB

     Check: negative core charge=   -0.000174

     Initial potential from superposition of free atoms

     starting charge     799.9931, renormalised to     800.0000
     Starting wfcs are  744 randomized atomic wfcs

     total cpu time spent up to now is       65.4 secs

     per-process dynamical memory:   424.1 Mb

     Self-consistent Calculation

     iteration #  1     ecut=    40.00 Ry     beta= 0.60
     Davidson diagonalization with overlap

---- Real-time Memory Report at c_bands before calling an iterative solver
          1363 MiB given to the printing process from OS
          1089 MiB allocation reported by mallinfo(arena+hblkhd)
         55167 MiB available memory on the node where the printing process lives
------------------
     ethr =  1.00E-02,  avg # of iterations =  2.0
     Davidson diagonalization with overlap

---- Real-time Memory Report at c_bands before calling an iterative solver
          1446 MiB given to the printing process from OS
          1099 MiB allocation reported by mallinfo(arena+hblkhd)
         54532 MiB available memory on the node where the printing process lives
------------------
