
     Program PWSCF v.7.3.1 starts on 27Oct2024 at 20: 8:42 
        Git branch: develop
        Last git commit: de3035747f5d8f2ec9a67869827341ebb43f5b12
        Last git commit date: Tue May 7 11:03:11 2024 +0000
        Last git commit subject: Merge branch 'LR_Modules-ZGEMM' into 'develop'

     This program is part of the open-source Quantum ESPRESSO suite
     for quantum simulation of materials; please cite
         "P. Giannozzi et al., J. Phys.:Condens. Matter 21 395502 (2009);
         "P. Giannozzi et al., J. Phys.:Condens. Matter 29 465901 (2017);
         "P. Giannozzi et al., J. Chem. Phys. 152 154105 (2020);
          URL http://www.quantum-espresso.org", 
     in publications or presentations arising from this work. More details at
     http://www.quantum-espresso.org/quote

     Parallel version (MPI), running on    32 processors

     MPI processes distributed on     1 nodes
     87349 MiB available memory on the printing compute node when the environment starts

     Waiting for input...
     Reading input from standard input

     Current dimensions of program PWSCF are:
     Max number of different atomic species (ntypx) = 10
     Max number of k-points (npk) =  40000
     Max angular momentum in pseudopotentials (lmaxx) =  4

     R & G space division:  proc/nbgrp/npool/nimage =      32
     Subspace diagonalization in iterative solution of the eigenvalue problem:
     one sub-group per band group will be used
     custom distributed-memory algorithm (size of sub-group:  4*  4 procs)


     Parallelization info
     --------------------
     sticks:   dense  smooth     PW     G-vecs:    dense   smooth      PW
     Min          74      74     20                19320    19320    2916
     Max          75      75     21                19345    19345    2955
     Sum        2373    2373    671               618459   618459   94307

     Using Slab Decomposition



     bravais-lattice index     =            0
     lattice parameter (alat)  =      14.3581  a.u.
     unit-cell volume          =   18103.7739 (a.u.)^3
     number of atoms/cell      =          240
     number of atomic types    =            4
     number of electrons       =       800.00
     number of Kohn-Sham states=          400
     kinetic-energy cutoff     =      40.0000  Ry
     charge density cutoff     =     160.0000  Ry
     scf convergence threshold =      1.0E-06
     mixing beta               =       0.6000
     number of iterations used =            8  plain     mixing
     Exchange-correlation= PBE
                           (   1   4   3   4   0   0   0)

     Using Berry phase electric field
     In a.u.(Ry)  cartesian system of reference
        0.0000000000
        0.0000000000
        0.0010000000
     In a.u.(Ry)  crystal system of reference
        0.0000000000
        0.0000000000
        0.0010000000
     Number of iterative cycles:   3


     celldm(1)=  14.358103  celldm(2)=   0.000000  celldm(3)=   0.000000
     celldm(4)=   0.000000  celldm(5)=   0.000000  celldm(6)=   0.000000

     crystal axes: (cart. coord. in units of alat)
               a(1) = (   1.000000   0.000000   0.000000 )  
               a(2) = (   0.000000   0.906510   0.000000 )  
               a(3) = (   0.000000   0.000000   6.746913 )  

     reciprocal axes: (cart. coord. in units 2 pi/alat)
               b(1) = (  1.000000  0.000000  0.000000 )  
               b(2) = (  0.000000  1.103131  0.000000 )  
               b(3) = (  0.000000  0.000000  0.148216 )  


     PseudoPot. # 1 for C  read from file:
     /home/luw/ONCVPSP/abinit/C_ONCV_PBE_sr.upf
     MD5 check sum: be7deea5c8a9eeec940f0cd39a542f08
     Pseudo is Norm-conserving + core correction, Zval =  4.0
     Generated using ONCVPSP code by D. R. Hamann
     Using radial grid of 1248 points,  4 beta functions with: 
                l(1) =   0
                l(2) =   0
                l(3) =   1
                l(4) =   1

     PseudoPot. # 2 for N  read from file:
     /home/luw/ONCVPSP/abinit/N_ONCV_PBE_sr.upf
     MD5 check sum: 18c6af81dac9c5a2d6d52ed11cf7bfee
     Pseudo is Norm-conserving + core correction, Zval =  5.0
     Generated using ONCVPSP code by D. R. Hamann
     Using radial grid of 1058 points,  4 beta functions with: 
                l(1) =   0
                l(2) =   0
                l(3) =   1
                l(4) =   1

     PseudoPot. # 3 for H  read from file:
     /home/luw/ONCVPSP/abinit/H_ONCV_PBE_sr.upf
     MD5 check sum: 31ee981bebb029a36324f200b357dac4
     Pseudo is Norm-conserving, Zval =  1.0
     Generated using ONCVPSP code by D. R. Hamann
     Using radial grid of 1166 points,  3 beta functions with: 
                l(1) =   0
                l(2) =   0
                l(3) =   1

     PseudoPot. # 4 for O  read from file:
     /home/luw/ONCVPSP/abinit/O_ONCV_PBE_sr.upf
     MD5 check sum: b0122293cc47a814ad0627188f9a6d95
     Pseudo is Norm-conserving + core correction, Zval =  6.0
     Generated using ONCVPSP code by D. R. Hamann
     Using radial grid of  936 points,  5 beta functions with: 
                l(1) =   0
                l(2) =   0
                l(3) =   1
                l(4) =   1
                l(5) =   2

     atomic species   valence    mass     pseudopotential
     C                 4.00    12.01070     C ( 1.00)
     N                 5.00    14.00670     N ( 1.00)
     H                 1.00     1.00794     H ( 1.00)
     O                 6.00    15.99900     O ( 1.00)

     No symmetry found


                                    s                        frac. trans.

      isym =  1     identity                                     

 cryst.   s( 1) = (     1          0          0      )
                  (     0          1          0      )
                  (     0          0          1      )

 cart.    s( 1) = (  1.0000000  0.0000000  0.0000000 )
                  (  0.0000000  1.0000000  0.0000000 )
                  (  0.0000000  0.0000000  1.0000000 )


   Cartesian axes

     site n.     atom                  positions (alat units)
         1        C      tau(   1) = (   0.8466831   0.7045977   0.5813680  )
         2        C      tau(   2) = (   1.0342881   0.7327936   0.6000385  )
         3        C      tau(   3) = (   1.1401786   0.7708164   0.4520536  )
         4        C      tau(   4) = (   1.0600527   0.7897158   0.2820462  )
         5        C      tau(   5) = (   0.7604216   0.7244740   0.4142656  )
         6        C      tau(   6) = (   0.8631327   0.7669172   0.2621066  )
         7        C      tau(   7) = (   1.1435906   0.8359144   0.1041341  )
         8        N      tau(   8) = (   0.9913835   0.8486445  -0.0319027  )
         9        C      tau(   9) = (   0.4870452   0.7662229   2.8203753  )
        10        H      tau(  10) = (   1.0963012   0.7221683   0.7282514  )
        11        H      tau(  11) = (   1.2820643   0.7870920   0.4662466  )
        12        H      tau(  12) = (   0.6186128   0.7105750   0.4024277  )
        13        O      tau(  13) = (   0.6724661   0.7805851   0.0086978  )
        14        C      tau(  14) = (   0.8153675   0.7969833   0.0689086  )
        15        O      tau(  15) = (   1.2970460   0.8523126   0.0780828  )
        16        C      tau(  16) = (   0.7364854   0.6565698   0.7422846  )
        17        C      tau(  17) = (   0.5623795   0.5820244   0.7027029  )
        18        C      tau(  18) = (   0.4366810   0.5595161   0.8347540  )
        19        C      tau(  19) = (   0.4831993   0.6074304   1.0142201  )
        20        C      tau(  20) = (   0.7929717   0.6885928   0.9253182  )
        21        C      tau(  21) = (   0.6659711   0.6687841   1.0623883  )
        22        C      tau(  22) = (   0.3619883   0.6171016   1.1735599  )
        23        N      tau(  23) = (   0.4718863   0.6919620   1.3300581  )
        24        O      tau(  24) = (   0.2101008   0.5774576   1.1698037  )
        25        H      tau(  25) = (   0.5279614   0.5458250   0.5681944  )
        26        H      tau(  26) = (   0.3046474   0.5116446   0.8049090  )
        27        H      tau(  27) = (   0.9244820   0.7381390   0.9538647  )
        28        O      tau(  28) = (   0.7907977   0.7672237   1.3377872  )
        29        C      tau(  29) = (   0.6660912   0.7159922   1.2590054  )
        30        C      tau(  30) = (   0.5841007   0.8396682   2.9657563  )
        31        H      tau(  31) = (   1.0754044   0.9013777   5.6420032  )
        32        H      tau(  32) = (   0.7031199   0.6948558   2.3600080  )
        33        C      tau(  33) = (   0.1947691   0.8193050   2.3464198  )
        34        C      tau(  34) = (   0.2896272   0.7877923   2.1823537  )
        35        C      tau(  35) = (   0.4746641   0.7400333   2.1933428  )
        36        C      tau(  36) = (   0.5629463   0.7284036   2.3551700  )
        37        C      tau(  37) = (   0.4670474   0.7616238   2.5176384  )
        38        C      tau(  38) = (   0.2804287   0.8035015   2.5088548  )
        39        C      tau(  39) = (   1.1733751   0.9239268   6.4364907  )
        40        H      tau(  40) = (   0.2471749   0.6136789   2.7546646  )
        41        O      tau(  41) = (   0.5671189   0.7756146   2.6619745  )
        42        H      tau(  42) = (   0.0131249   0.7179613   1.7522250  )
        43        C      tau(  43) = (   0.1528653   0.7423546   1.7270123  )
        44        C      tau(  44) = (   0.2191528   0.7215622   1.5530717  )
        45        H      tau(  45) = (   0.1299582   0.6156586   3.0549246  )
        46        C      tau(  46) = (   0.4016728   0.7398964   1.5067341  )
        47        O      tau(  47) = (   0.1947860   0.7943376   2.0343436  )
        48        C      tau(  48) = (   0.5083547   0.7997983   1.6502991  )
        49        H      tau(  49) = (   0.6478741   0.8237537   1.6261108  )
        50        C      tau(  50) = (   0.4448282   0.8311988   1.8234366  )
        51        H      tau(  51) = (   0.5362107   0.8839717   1.9211623  )
        52        C      tau(  52) = (   0.2656006   0.7927103   1.8711129  )
        53        H      tau(  53) = (   0.5493925   0.7110043   2.0750270  )
        54        H      tau(  54) = (   0.0552897   0.8558508   2.3435527  )
        55        C      tau(  55) = (   0.5188111   0.8266730   3.1406986  )
        56        C      tau(  56) = (   0.3500371   0.7523799   3.1801740  )
        57        H      tau(  57) = (   0.5991917   0.8809056   3.2468970  )
        58        C      tau(  58) = (   0.2570946   0.6786100   3.0325347  )
        59        H      tau(  59) = (   0.2057095   0.8290812   2.6287147  )
        60        C      tau(  60) = (   0.3225506   0.6795701   2.8579835  )
        61        H      tau(  61) = (   0.1251226   0.6853509   1.4506579  )
        62        C      tau(  62) = (   0.0942058   0.6930011   3.9744887  )
        63        C      tau(  63) = (  -0.0695386   0.6403676   3.8911570  )
        64        C      tau(  64) = (  -0.0917560   0.6398993   3.7072064  )
        65        C      tau(  65) = (   0.0570615   0.6867243   3.5986506  )
        66        C      tau(  66) = (   0.2440650   0.7416212   3.8705042  )
        67        C      tau(  67) = (   0.2282169   0.7447436   3.6830263  )
        68        C      tau(  68) = (   0.0794266   0.6768140   3.3995793  )
        69        N      tau(  69) = (   0.2654095   0.7577651   3.3567183  )
        70        C      tau(  70) = (   1.1826180   0.9673998   6.2552358  )
        71        H      tau(  71) = (  -0.1822124   0.5967506   3.9680316  )
        72        H      tau(  72) = (  -0.2167030   0.6002888   3.6476473  )
        73        H      tau(  73) = (   0.3678157   0.7791909   3.9326021  )
        74        O      tau(  74) = (   0.5017621   0.8537885   3.5616708  )
        75        C      tau(  75) = (   0.3582453   0.7963413   3.5379232  )
        76        O      tau(  76) = (  -0.0209063   0.6047056   3.3031390  )
        77        H      tau(  77) = (   0.0785216   0.7826544   5.1010605  )
        78        C      tau(  78) = (   0.1050367   0.7020232   4.1739873  )
        79        C      tau(  79) = (  -0.0678832   0.6872320   4.2581733  )
        80        C      tau(  80) = (  -0.0894810   0.6968508   4.4404554  )
        81        C      tau(  81) = (   0.0637472   0.7303736   4.5493204  )
        82        C      tau(  82) = (   0.2628627   0.7319254   4.2816597  )
        83        C      tau(  83) = (   0.2443025   0.7475797   4.4680850  )
        84        C      tau(  84) = (   0.0722872   0.7670264   4.7465240  )
        85        N      tau(  85) = (   0.2671017   0.8134893   4.7925330  )
        86        O      tau(  86) = (  -0.0520121   0.7621473   4.8419305  )
        87        H      tau(  87) = (  -0.1866218   0.6721959   4.1800749  )
        88        H      tau(  88) = (  -0.2196522   0.6853130   4.4988408  )
        89        H      tau(  89) = (   0.3926830   0.7462593   4.2212622  )
        90        O      tau(  90) = (   0.5297214   0.7955275   4.5988753  )
        91        C      tau(  91) = (   0.3749518   0.7890925   4.6166826  )
        92        C      tau(  92) = (   1.0321843   0.9471704   6.1403167  )
        93        O      tau(  93) = (   1.0457614   0.9918498   5.9707092  )
        94        H      tau(  94) = (   0.6926177   1.0727934   6.0356388  )
        95        C      tau(  95) = (   0.8010935   0.8856692   5.5646746  )
        96        C      tau(  96) = (   0.6191059   0.9061902   5.6174015  )
        97        C      tau(  97) = (   0.5843516   0.9729145   5.7937885  )
        98        C      tau(  98) = (   0.7235425   1.0150685   5.9085141  )
        99        C      tau(  99) = (   0.9056959   0.9812542   5.8612400  )
       100        C      tau( 100) = (   0.9393634   0.9218719   5.6829959  )
       101        H      tau( 101) = (   0.7450544   0.7892074   6.4575427  )
       102        H      tau( 102) = (   1.2936073   0.9391988   6.5147662  )
       103        H      tau( 103) = (   1.3072982   1.0161126   6.2015097  )
       104        H      tau( 104) = (   0.1775631   0.7956708   5.4056670  )
       105        C      tau( 105) = (   0.2743405   0.8133983   5.3013531  )
       106        C      tau( 106) = (   0.2183746   0.8067625   5.1235064  )
       107        C      tau( 107) = (   0.3347942   0.8281383   4.9762395  )
       108        O      tau( 108) = (   0.4769354   0.8613012   5.5232974  )
       109        C      tau( 109) = (   0.5139486   0.8620673   5.0253432  )
       110        H      tau( 110) = (   0.6105415   0.8825367   4.9206010  )
       111        C      tau( 111) = (   0.5753064   0.8722141   5.2015227  )
       112        H      tau( 112) = (   0.7141762   0.9011870   5.2227267  )
       113        C      tau( 113) = (   0.4566378   0.8464360   5.3476458  )
       114        H      tau( 114) = (   0.4481638   0.9938068   5.8362727  )
       115        H      tau( 115) = (   0.8322356   0.8370987   5.4338754  )
       116        C      tau( 116) = (   0.8763970   0.8740198   6.2206082  )
       117        C      tau( 117) = (   0.8682880   0.8403196   6.4040555  )
       118        H      tau( 118) = (   0.7605514   0.8429528   6.1417469  )
       119        C      tau( 119) = (   1.0141911   0.8675194   6.5211420  )
       120        H      tau( 120) = (   0.7087997   0.9047996   2.9380684  )
       121        C      tau( 121) = (   0.8587874   1.2557206   0.0377217  )
       122        C      tau( 122) = (   1.0434397   1.3038190   0.0235156  )
       123        C      tau( 123) = (   1.1218299   1.3463071  -0.1389649  )
       124        C      tau( 124) = (   1.0173208   1.3421980  -0.2972049  )
       125        C      tau( 125) = (   0.7475124   1.2579035  -0.1166306  )
       126        C      tau( 126) = (   0.8236976   1.2973989  -0.2833450  )
       127        C      tau( 127) = (   1.0590180   1.3857805  -0.4886356  )
       128        N      tau( 128) = (   0.8825226   1.3754842  -0.5958640  )
       129        C      tau( 129) = (   0.7805455   1.1979654   2.3672824  )
       130        H      tau( 130) = (   1.1252835   1.3076582   0.1411442  )
       131        H      tau( 131) = (   1.2609859   1.3833786  -0.1448362  )
       132        H      tau( 132) = (   0.6066279   1.2308657  -0.1104582  )
       133        O      tau( 133) = (   0.5900006   1.2677449  -0.4986742  )
       134        C      tau( 134) = (   0.7373455   1.3098717  -0.4666033  )
       135        O      tau( 135) = (   1.2005674   1.4267573  -0.5416309  )
       136        C      tau( 136) = (   0.7814288   1.2036604   0.2120495  )
       137        C      tau( 137) = (   0.5986488   1.1436553   0.2073598  )
       138        C      tau( 138) = (   0.5065713   1.0913002   0.3586451  )
       139        C      tau( 139) = (   0.5962684   1.0986050   0.5260684  )
       140        C      tau( 140) = (   0.8774392   1.2083009   0.3774823  )
       141        C      tau( 141) = (   0.7864720   1.1589539   0.5345178  )
       142        C      tau( 142) = (   0.5244154   1.0589932   0.7092790  )
       143        N      tau( 143) = (   0.6821209   1.0886012   0.8399559  )
       144        O      tau( 144) = (   0.3745486   1.0248108   0.7400199  )
       145        H      tau( 145) = (   0.5273296   1.1366452   0.0840715  )
       146        H      tau( 146) = (   0.3698461   1.0480051   0.3507669  )
       147        H      tau( 147) = (   1.0146157   1.2513984   0.3842700  )
       148        O      tau( 148) = (   0.9784972   1.2149124   0.7798520  )
       149        C      tau( 149) = (   0.8419147   1.1590407   0.7280883  )
       150        C      tau( 150) = (   0.8398328   1.2743880   2.5306553  )
       151        H      tau( 151) = (   0.5305606   1.2028409   5.4857042  )
       152        H      tau( 152) = (   1.0027401   1.0218176   1.9465755  )
       153        C      tau( 153) = (   0.5827394   1.3136458   1.8624071  )
       154        C      tau( 154) = (   0.6656383   1.2222447   1.7152977  )
       155        C      tau( 155) = (   0.8210825   1.1167372   1.7486061  )
       156        C      tau( 156) = (   0.8862381   1.1012245   1.9213312  )
       157        C      tau( 157) = (   0.8022276   1.1882188   2.0693911  )
       158        C      tau( 158) = (   0.6453270   1.2916980   2.0349797  )
       159        C      tau( 159) = (   1.0162930   1.3782501   5.8425440  )
       160        H      tau( 160) = (   0.5522142   1.0693408   2.2416700  )
       161        O      tau( 161) = (   0.8864055   1.1891993   2.2256569  )
       162        H      tau( 162) = (   0.3410736   1.0822316   1.3604455  )
       163        C      tau( 163) = (   0.4696610   1.1072996   1.3009698  )
       164        C      tau( 164) = (   0.4922616   1.0908087   1.1169355  )
       165        H      tau( 165) = (   0.3526857   1.1112918   2.4920982  )
       166        C      tau( 166) = (   0.6591752   1.1186019   1.0320561  )
       167        O      tau( 167) = (   0.5630387   1.2175779   1.5724100  )
       168        C      tau( 168) = (   0.8012448   1.1704134   1.1457154  )
       169        H      tau( 169) = (   0.9308629   1.1953764   1.0879062  )
       170        C      tau( 170) = (   0.7840929   1.1910668   1.3299136  )
       171        H      tau( 171) = (   0.8976789   1.2319749   1.4079959  )
       172        C      tau( 172) = (   0.6150600   1.1619024   1.4117354  )
       173        H      tau( 173) = (   0.8870751   1.0477984   1.6411659  )
       174        H      tau( 174) = (   0.4673280   1.3955822   1.8368524  )
       175        C      tau( 175) = (   0.7255555   1.2851471   2.6778936  )
       176        C      tau( 176) = (   0.5470273   1.2237914   2.6737445  )
       177        H      tau( 177) = (   0.7757919   1.3441014   2.7995240  )
       178        C      tau( 178) = (   0.4885716   1.1557252   2.5070933  )
       179        H      tau( 179) = (   0.5764943   1.3562246   2.1431728  )
       180        C      tau( 180) = (   0.6018588   1.1333598   2.3607000  )
       181        H      tau( 181) = (   0.3771873   1.0543631   1.0383090  )
       182        C      tau( 182) = (   0.1207469   1.1425371   3.3943857  )
       183        C      tau( 183) = (  -0.0159362   1.0812380   3.2725337  )
       184        C      tau( 184) = (   0.0108233   1.0795432   3.0904467  )
       185        C      tau( 185) = (   0.1817553   1.1296214   3.0229179  )
       186        C      tau( 186) = (   0.2968256   1.1912141   3.3292673  )
       187        C      tau( 187) = (   0.3298330   1.1846626   3.1443564  )
       188        C      tau( 188) = (   0.2393200   1.1448799   2.8312514  )
       189        N      tau( 189) = (   0.4323612   1.2153949   2.8323153  )
       190        C      tau( 190) = (   1.0063021   1.3748093   5.6559179  )
       191        H      tau( 191) = (  -0.1436434   1.0395301   3.3207339  )
       192        H      tau( 192) = (  -0.0942737   1.0436376   3.0005030  )
       193        H      tau( 193) = (   0.4004048   1.2354632   3.4180945  )
       194        O      tau( 194) = (   0.6300361   1.2728337   3.0890117  )
       195        C      tau( 195) = (   0.4901848   1.2333211   3.0321545  )
       196        O      tau( 196) = (   0.1455192   1.1159347   2.7089687  )
       197        H      tau( 197) = (  -0.0998711   1.1649816   4.4970838  )
       198        C      tau( 198) = (   0.0655757   1.1508461   3.5857261  )
       199        C      tau( 199) = (  -0.1149632   1.1138473   3.6378268  )
       200        C      tau( 200) = (  -0.1640710   1.1022495   3.8157572  )
       201        C      tau( 201) = (  -0.0309339   1.1330653   3.9473681  )
       202        C      tau( 202) = (   0.1989801   1.1921966   3.7131144  )
       203        C      tau( 203) = (   0.1565125   1.1794257   3.8954638  )
       204        C      tau( 204) = (  -0.0466330   1.1260190   4.1471440  )
       205        N      tau( 205) = (   0.1413620   1.1563082   4.2224686  )
       206        O      tau( 206) = (  -0.1812037   1.1049054   4.2251455  )
       207        H      tau( 207) = (  -0.2177883   1.0916050   3.5407739  )
       208        H      tau( 208) = (  -0.2989249   1.0692891   3.8548137  )
       209        H      tau( 209) = (   0.3325349   1.2255798   3.6725668  )
       210        O      tau( 210) = (   0.4230087   1.2299411   4.0607843  )
       211        C      tau( 211) = (   0.2709571   1.1959893   4.0606618  )
       212        C      tau( 212) = (   0.8383525   1.3854063   5.5671725  )
       213        O      tau( 213) = (   0.8415573   1.3752413   5.3897138  )
       214        H      tau( 214) = (   0.8300333   1.4486414   5.0574463  )
       215        C      tau( 215) = (   0.3979012   1.2277233   5.2359208  )
       216        C      tau( 216) = (   0.4054544   1.2835272   5.0528483  )
       217        C      tau( 217) = (   0.5652857   1.3676666   4.9918259  )
       218        C      tau( 218) = (   0.7093112   1.3879553   5.1065762  )
       219        C      tau( 219) = (   0.7006642   1.3370819   5.2910919  )
       220        C      tau( 220) = (   0.5410454   1.2516701   5.3510492  )
       221        H      tau( 221) = (   0.5817996   1.4339915   5.9420055  )
       222        H      tau( 222) = (   1.1463257   1.3648509   5.9027939  )
       223        H      tau( 223) = (   1.1270173   1.3617089   5.5786877  )
       224        H      tau( 224) = (  -0.0482616   1.2167810   4.8116533  )
       225        C      tau( 225) = (   0.0641194   1.2138097   4.7215980  )
       226        C      tau( 226) = (   0.0360190   1.1847422   4.5402473  )
       227        C      tau( 227) = (   0.1763616   1.1829443   4.4124787  )
       228        O      tau( 228) = (   0.2559105   1.2512899   4.9641494  )
       229        C      tau( 229) = (   0.3508772   1.2061428   4.4814786  )
       230        H      tau( 230) = (   0.4629329   1.2028872   4.3906922  )
       231        C      tau( 231) = (   0.3845543   1.2262645   4.6634997  )
       232        H      tau( 232) = (   0.5205209   1.2331708   4.7073246  )
       233        C      tau( 233) = (   0.2416163   1.2353015   4.7886081  )
       234        H      tau( 234) = (   0.5766773   1.4184017   4.8578025  )
       235        H      tau( 235) = (   0.2784978   1.1626036   5.2831118  )
       236        C      tau( 236) = (   0.6867411   1.4119729   5.6781928  )
       237        C      tau( 237) = (   0.7018434   1.4137528   5.8643779  )
       238        H      tau( 238) = (   0.5574982   1.4336302   5.6191233  )
       239        C      tau( 239) = (   0.8658742   1.3919647   5.9547868  )
       240        H      tau( 240) = (   0.9740813   1.3253013   2.5407387  )

   Crystallographic axes

     site n.     atom                  positions (cryst. coord.)
         1        C      tau(   1) = (  0.8466831  0.7772638  0.0861680  )
         2        C      tau(   2) = (  1.0342881  0.8083676  0.0889353  )
         3        C      tau(   3) = (  1.1401786  0.8503116  0.0670016  )
         4        C      tau(   4) = (  1.0600527  0.8711602  0.0418037  )
         5        C      tau(   5) = (  0.7604216  0.7991900  0.0614008  )
         6        C      tau(   6) = (  0.8631327  0.8460103  0.0388484  )
         7        C      tau(   7) = (  1.1435906  0.9221234  0.0154343  )
         8        N      tau(   8) = (  0.9913835  0.9361663 -0.0047285  )
         9        C      tau(   9) = (  0.4870452  0.8452444  0.4180246  )
        10        H      tau(  10) = (  1.0963012  0.7966464  0.1079385  )
        11        H      tau(  11) = (  1.2820643  0.8682658  0.0691052  )
        12        H      tau(  12) = (  0.6186128  0.7838575  0.0596462  )
        13        O      tau(  13) = (  0.6724661  0.8610879  0.0012892  )
        14        C      tau(  14) = (  0.8153675  0.8791772  0.0102133  )
        15        O      tau(  15) = (  1.2970460  0.9402127  0.0115731  )
        16        C      tau(  16) = (  0.7364854  0.7242827  0.1100184  )
        17        C      tau(  17) = (  0.5623795  0.6420493  0.1041518  )
        18        C      tau(  18) = (  0.4366810  0.6172198  0.1237238  )
        19        C      tau(  19) = (  0.4831993  0.6700755  0.1503236  )
        20        C      tau(  20) = (  0.7929717  0.7596082  0.1371469  )
        21        C      tau(  21) = (  0.6659711  0.7377567  0.1574629  )
        22        C      tau(  22) = (  0.3619883  0.6807440  0.1739403  )
        23        N      tau(  23) = (  0.4718863  0.7633249  0.1971358  )
        24        O      tau(  24) = (  0.2101008  0.6370116  0.1733835  )
        25        H      tau(  25) = (  0.5279614  0.6021166  0.0842155  )
        26        H      tau(  26) = (  0.3046474  0.5644112  0.1193003  )
        27        H      tau(  27) = (  0.9244820  0.8142642  0.1413780  )
        28        O      tau(  28) = (  0.7907977  0.8463484  0.1982814  )
        29        C      tau(  29) = (  0.6660912  0.7898334  0.1866047  )
        30        C      tau(  30) = (  0.5841007  0.9262642  0.4395723  )
        31        H      tau(  31) = (  1.0754044  0.9943380  0.8362348  )
        32        H      tau(  32) = (  0.7031199  0.7665171  0.3497908  )
        33        C      tau(  33) = (  0.1947691  0.9038010  0.3477768  )
        34        C      tau(  34) = (  0.2896272  0.8690383  0.3234596  )
        35        C      tau(  35) = (  0.4746641  0.8163539  0.3250884  )
        36        C      tau(  36) = (  0.5629463  0.8035248  0.3490737  )
        37        C      tau(  37) = (  0.4670474  0.8401710  0.3731541  )
        38        C      tau(  38) = (  0.2804287  0.8863676  0.3718523  )
        39        C      tau(  39) = (  1.1733751  1.0192125  0.9539905  )
        40        H      tau(  40) = (  0.2471749  0.6769684  0.4082852  )
        41        O      tau(  41) = (  0.5671189  0.8556047  0.3945470  )
        42        H      tau(  42) = (  0.0131249  0.7920055  0.2597077  )
        43        C      tau(  43) = (  0.1528653  0.8189146  0.2559707  )
        44        C      tau(  44) = (  0.2191528  0.7959778  0.2301900  )
        45        H      tau(  45) = (  0.1299582  0.6791522  0.4527885  )
        46        C      tau(  46) = (  0.4016728  0.8162029  0.2233220  )
        47        O      tau(  47) = (  0.1947860  0.8762586  0.3015221  )
        48        C      tau(  48) = (  0.5083547  0.8822825  0.2446006  )
        49        H      tau(  49) = (  0.6478741  0.9087085  0.2410155  )
        50        C      tau(  50) = (  0.4448282  0.9169214  0.2702624  )
        51        H      tau(  51) = (  0.5362107  0.9751368  0.2847469  )
        52        C      tau(  52) = (  0.2656006  0.8744636  0.2773287  )
        53        H      tau(  53) = (  0.5493925  0.7843311  0.3075521  )
        54        H      tau(  54) = (  0.0552897  0.9441158  0.3473519  )
        55        C      tau(  55) = (  0.5188111  0.9119289  0.4655016  )
        56        C      tau(  56) = (  0.3500371  0.8299738  0.4713525  )
        57        H      tau(  57) = (  0.5991917  0.9717545  0.4812419  )
        58        C      tau(  58) = (  0.2570946  0.7485959  0.4494700  )
        59        H      tau(  59) = (  0.2057095  0.9145854  0.3896174  )
        60        C      tau(  60) = (  0.3225506  0.7496551  0.4235987  )
        61        H      tau(  61) = (  0.1251226  0.7560320  0.2150106  )
        62        C      tau(  62) = (  0.0942058  0.7644712  0.5890826  )
        63        C      tau(  63) = ( -0.0695386  0.7064095  0.5767315  )
        64        C      tau(  64) = ( -0.0917560  0.7058930  0.5494671  )
        65        C      tau(  65) = (  0.0570615  0.7575470  0.5333774  )
        66        C      tau(  66) = (  0.2440650  0.8181056  0.5736704  )
        67        C      tau(  67) = (  0.2282169  0.8215500  0.5458832  )
        68        C      tau(  68) = (  0.0794266  0.7466147  0.5038718  )
        69        N      tau(  69) = (  0.2654095  0.8359144  0.4975191  )
        70        C      tau(  70) = (  1.1826180  1.0671689  0.9271256  )
        71        H      tau(  71) = ( -0.1822124  0.6582943  0.5881255  )
        72        H      tau(  72) = ( -0.2167030  0.6621974  0.5406395  )
        73        H      tau(  73) = (  0.3678157  0.8595499  0.5828743  )
        74        O      tau(  74) = (  0.5017621  0.9418408  0.5278964  )
        75        C      tau(  75) = (  0.3582453  0.8784690  0.5243766  )
        76        O      tau(  76) = ( -0.0209063  0.6670697  0.4895778  )
        77        H      tau(  77) = (  0.0785216  0.8633705  0.7560585  )
        78        C      tau(  78) = (  0.1050367  0.7744238  0.6186514  )
        79        C      tau(  79) = ( -0.0678832  0.7581072  0.6311291  )
        80        C      tau(  80) = ( -0.0894810  0.7687179  0.6581463  )
        81        C      tau(  81) = (  0.0637472  0.8056980  0.6742818  )
        82        C      tau(  82) = (  0.2628627  0.8074098  0.6346102  )
        83        C      tau(  83) = (  0.2443025  0.8246785  0.6622414  )
        84        C      tau(  84) = (  0.0722872  0.8461308  0.7035105  )
        85        N      tau(  85) = (  0.2671017  0.8973855  0.7103298  )
        86        O      tau(  86) = ( -0.0520121  0.8407486  0.7176513  )
        87        H      tau(  87) = ( -0.1866218  0.7415204  0.6195537  )
        88        H      tau(  88) = ( -0.2196522  0.7559902  0.6667999  )
        89        H      tau(  89) = (  0.3926830  0.8232220  0.6256583  )
        90        O      tau(  90) = (  0.5297214  0.8775713  0.6816266  )
        91        C      tau(  91) = (  0.3749518  0.8704726  0.6842659  )
        92        C      tau(  92) = (  1.0321843  1.0448533  0.9100928  )
        93        O      tau(  93) = (  1.0457614  1.0941405  0.8849542  )
        94        H      tau(  94) = (  0.6926177  1.1834320  0.8945778  )
        95        C      tau(  95) = (  0.8010935  0.9770094  0.8247734  )
        96        C      tau(  96) = (  0.6191059  0.9996468  0.8325884  )
        97        C      tau(  97) = (  0.5843516  1.0732524  0.8587318  )
        98        C      tau(  98) = (  0.7235425  1.1197538  0.8757359  )
        99        C      tau(  99) = (  0.9056959  1.0824522  0.8687292  )
       100        C      tau( 100) = (  0.9393634  1.0169457  0.8423106  )
       101        H      tau( 101) = (  0.7450544  0.8705994  0.9571107  )
       102        H      tau( 102) = (  1.2936073  1.0360596  0.9655922  )
       103        H      tau( 103) = (  1.3072982  1.1209056  0.9191626  )
       104        H      tau( 104) = (  0.1775631  0.8777294  0.8012060  )
       105        C      tau( 105) = (  0.2743405  0.8972851  0.7857450  )
       106        C      tau( 106) = (  0.2183746  0.8899649  0.7593853  )
       107        C      tau( 107) = (  0.3347942  0.9135452  0.7375580  )
       108        O      tau( 108) = (  0.4769354  0.9501283  0.8186407  )
       109        C      tau( 109) = (  0.5139486  0.9509734  0.7448359  )
       110        H      tau( 110) = (  0.6105415  0.9735538  0.7293115  )
       111        C      tau( 111) = (  0.5753064  0.9621666  0.7709486  )
       112        H      tau( 112) = (  0.7141762  0.9941276  0.7740913  )
       113        C      tau( 113) = (  0.4566378  0.9337301  0.7926063  )
       114        H      tau( 114) = (  0.4481638  1.0962993  0.8650286  )
       115        H      tau( 115) = (  0.8322356  0.9234298  0.8053869  )
       116        C      tau( 116) = (  0.8763970  0.9641586  0.9219933  )
       117        C      tau( 117) = (  0.8682880  0.9269828  0.9491831  )
       118        H      tau( 118) = (  0.7605514  0.9298875  0.9103048  )
       119        C      tau( 119) = (  1.0141911  0.9569878  0.9665372  )
       120        H      tau( 120) = (  0.7087997  0.9981127  0.4354686  )
       121        C      tau( 121) = (  0.8587874  1.3852246  0.0055910  )
       122        C      tau( 122) = (  1.0434397  1.4382835  0.0034854  )
       123        C      tau( 123) = (  1.1218299  1.4851535 -0.0205968  )
       124        C      tau( 124) = (  1.0173208  1.4806206 -0.0440505  )
       125        C      tau( 125) = (  0.7475124  1.3876327 -0.0172865  )
       126        C      tau( 126) = (  0.8236976  1.4312013 -0.0419962  )
       127        C      tau( 127) = (  1.0590180  1.5286978 -0.0724236  )
       128        N      tau( 128) = (  0.8825226  1.5173397 -0.0883165  )
       129        C      tau( 129) = (  0.7805455  1.3215130  0.3508690  )
       130        H      tau( 130) = (  1.1252835  1.4425186  0.0209198  )
       131        H      tau( 131) = (  1.2609859  1.5260481 -0.0214670  )
       132        H      tau( 132) = (  0.6066279  1.3578064 -0.0163717  )
       133        O      tau( 133) = (  0.5900006  1.3984891 -0.0739115  )
       134        C      tau( 134) = (  0.7373455  1.4449604 -0.0691580  )
       135        O      tau( 135) = (  1.2005674  1.5739006 -0.0802783  )
       136        C      tau( 136) = (  0.7814288  1.3277954  0.0314291  )
       137        C      tau( 137) = (  0.5986488  1.2616019  0.0307340  )
       138        C      tau( 138) = (  0.5065713  1.2038474  0.0531569  )
       139        C      tau( 139) = (  0.5962684  1.2119055  0.0779717  )
       140        C      tau( 140) = (  0.8774392  1.3329145  0.0559489  )
       141        C      tau( 141) = (  0.7864720  1.2784783  0.0792241  )
       142        C      tau( 142) = (  0.5244154  1.1682085  0.1051264  )
       143        N      tau( 143) = (  0.6821209  1.2008700  0.1244948  )
       144        O      tau( 144) = (  0.3745486  1.1305008  0.1096827  )
       145        H      tau( 145) = (  0.5273296  1.2538689  0.0124607  )
       146        H      tau( 146) = (  0.3698461  1.1560872  0.0519892  )
       147        H      tau( 147) = (  1.0146157  1.3804567  0.0569549  )
       148        O      tau( 148) = (  0.9784972  1.3402078  0.1155865  )
       149        C      tau( 149) = (  0.8419147  1.2785740  0.1079143  )
       150        C      tau( 150) = (  0.8398328  1.4058173  0.3750834  )
       151        H      tau( 151) = (  0.5305606  1.3268914  0.8130688  )
       152        H      tau( 152) = (  1.0027401  1.1271990  0.2885135  )
       153        C      tau( 153) = (  0.5827394  1.4491238  0.2760384  )
       154        C      tau( 154) = (  0.6656383  1.3482963  0.2542344  )
       155        C      tau( 155) = (  0.8210825  1.2319077  0.2591713  )
       156        C      tau( 156) = (  0.8862381  1.2147952  0.2847719  )
       157        C      tau( 157) = (  0.8022276  1.3107613  0.3067167  )
       158        C      tau( 158) = (  0.6453270  1.4249125  0.3016164  )
       159        C      tau( 159) = (  1.0162930  1.5203908  0.8659581  )
       160        H      tau( 160) = (  0.5522142  1.1796233  0.3322512  )
       161        O      tau( 161) = (  0.8864055  1.3118430  0.3298778  )
       162        H      tau( 162) = (  0.3410736  1.1938435  0.2016397  )
       163        C      tau( 163) = (  0.4696610  1.2214968  0.1928245  )
       164        C      tau( 164) = (  0.4922616  1.2033052  0.1655476  )
       165        H      tau( 165) = (  0.3526857  1.2259007  0.3693687  )
       166        C      tau( 166) = (  0.6591752  1.2339647  0.1529672  )
       167        O      tau( 167) = (  0.5630387  1.3431483  0.2330562  )
       168        C      tau( 168) = (  0.8012448  1.2911197  0.1698133  )
       169        H      tau( 169) = (  0.9308629  1.3186571  0.1612450  )
       170        C      tau( 170) = (  0.7840929  1.3139030  0.1971144  )
       171        H      tau( 171) = (  0.8976789  1.3590301  0.2086874  )
       172        C      tau( 172) = (  0.6150600  1.2817308  0.2092417  )
       173        H      tau( 173) = (  0.8870751  1.1558591  0.2432469  )
       174        H      tau( 174) = (  0.4673280  1.5395104  0.2722508  )
       175        C      tau( 175) = (  0.7255555  1.4176859  0.3969065  )
       176        C      tau( 176) = (  0.5470273  1.3500026  0.3962915  )
       177        H      tau( 177) = (  0.7757919  1.4827203  0.4149341  )
       178        C      tau( 178) = (  0.4885716  1.2749166  0.3715912  )
       179        H      tau( 179) = (  0.5764943  1.4960938  0.3176524  )
       180        C      tau( 180) = (  0.6018588  1.2502446  0.3498934  )
       181        H      tau( 181) = (  0.3771873  1.1631009  0.1538939  )
       182        C      tau( 182) = (  0.1207469  1.2603684  0.5031020  )
       183        C      tau( 183) = ( -0.0159362  1.1927475  0.4850416  )
       184        C      tau( 184) = (  0.0108233  1.1908779  0.4580534  )
       185        C      tau( 185) = (  0.1817553  1.2461207  0.4480446  )
       186        C      tau( 186) = (  0.2968256  1.3140655  0.4934505  )
       187        C      tau( 187) = (  0.3298330  1.3068384  0.4660437  )
       188        C      tau( 188) = (  0.2393200  1.2629529  0.4196366  )
       189        N      tau( 189) = (  0.4323612  1.3407401  0.4197943  )
       190        C      tau( 190) = (  1.0063021  1.5165951  0.8382972  )
       191        H      tau( 191) = ( -0.1436434  1.1467382  0.4921857  )
       192        H      tau( 192) = ( -0.0942737  1.1512693  0.4447224  )
       193        H      tau( 193) = (  0.4004048  1.3628781  0.5066161  )
       194        O      tau( 194) = (  0.6300361  1.4041026  0.4578408  )
       195        C      tau( 195) = (  0.4901848  1.3605150  0.4494136  )
       196        O      tau( 196) = (  0.1455192  1.2310225  0.4015123  )
       197        H      tau( 197) = ( -0.0998711  1.2851276  0.6665395  )
       198        C      tau( 198) = (  0.0655757  1.2695344  0.5314617  )
       199        C      tau( 199) = ( -0.1149632  1.2287198  0.5391839  )
       200        C      tau( 200) = ( -0.1640710  1.2159259  0.5655560  )
       201        C      tau( 201) = ( -0.0309339  1.2499198  0.5850629  )
       202        C      tau( 202) = (  0.1989801  1.3151493  0.5503427  )
       203        C      tau( 203) = (  0.1565125  1.3010614  0.5773698  )
       204        C      tau( 204) = ( -0.0466330  1.2421468  0.6146728  )
       205        N      tau( 205) = (  0.1413620  1.2755598  0.6258371  )
       206        O      tau( 206) = ( -0.1812037  1.2188557  0.6262339  )
       207        H      tau( 207) = ( -0.2177883  1.2041836  0.5247991  )
       208        H      tau( 208) = ( -0.2989249  1.1795662  0.5713448  )
       209        H      tau( 209) = (  0.3325349  1.3519754  0.5443329  )
       210        O      tau( 210) = (  0.4230087  1.3567865  0.6018729  )
       211        C      tau( 211) = (  0.2709571  1.3193332  0.6018548  )
       212        C      tau( 212) = (  0.8383525  1.5282851  0.8251437  )
       213        O      tau( 213) = (  0.8415573  1.5170716  0.7988415  )
       214        H      tau( 214) = (  0.8300333  1.5980417  0.7495941  )
       215        C      tau( 215) = (  0.3979012  1.3543399  0.7760469  )
       216        C      tau( 216) = (  0.4054544  1.4158990  0.7489126  )
       217        C      tau( 217) = (  0.5652857  1.5087158  0.7398681  )
       218        C      tau( 218) = (  0.7093112  1.5310969  0.7568760  )
       219        C      tau( 219) = (  0.7006642  1.4749769  0.7842241  )
       220        C      tau( 220) = (  0.5410454  1.3807565  0.7931108  )
       221        H      tau( 221) = (  0.5817996  1.5818808  0.8806999  )
       222        H      tau( 222) = (  1.1463257  1.5056097  0.8748881  )
       223        H      tau( 223) = (  1.1270173  1.5021436  0.8268504  )
       224        H      tau( 224) = ( -0.0482616  1.3422692  0.7131637  )
       225        C      tau( 225) = (  0.0641194  1.3389914  0.6998161  )
       226        C      tau( 226) = (  0.0360190  1.3069262  0.6729370  )
       227        C      tau( 227) = (  0.1763616  1.3049428  0.6539996  )
       228        O      tau( 228) = (  0.2559105  1.3803370  0.7357660  )
       229        C      tau( 229) = (  0.3508772  1.3305338  0.6642265  )
       230        H      tau( 230) = (  0.4629329  1.3269425  0.6507705  )
       231        C      tau( 231) = (  0.3845543  1.3527307  0.6912050  )
       232        H      tau( 232) = (  0.5205209  1.3603492  0.6977005  )
       233        C      tau( 233) = (  0.2416163  1.3626997  0.7097480  )
       234        H      tau( 234) = (  0.5766773  1.5646832  0.7200037  )
       235        H      tau( 235) = (  0.2784978  1.2825044  0.7830414  )
       236        C      tau( 236) = (  0.6867411  1.5575914  0.8415987  )
       237        C      tau( 237) = (  0.7018434  1.5595549  0.8691943  )
       238        H      tau( 238) = (  0.5574982  1.5814823  0.8328436  )
       239        C      tau( 239) = (  0.8658742  1.5355197  0.8825943  )
       240        H      tau( 240) = (  0.9740813  1.4619813  0.3765780  )

     number of k points=    18
                       cart. coord. in units 2pi/alat
        k(    1) = (   0.0000000   0.0000000   0.0000000), wk =   0.1111111
        k(    2) = (   0.0000000   0.0000000   0.0741080), wk =   0.1111111
        k(    3) = (   0.0000000   0.3677104   0.0000000), wk =   0.1111111
        k(    4) = (   0.0000000   0.3677104   0.0741080), wk =   0.1111111
        k(    5) = (   0.0000000   0.7354208   0.0000000), wk =   0.1111111
        k(    6) = (   0.0000000   0.7354208   0.0741080), wk =   0.1111111
        k(    7) = (   0.3333333   0.0000000   0.0000000), wk =   0.1111111
        k(    8) = (   0.3333333   0.0000000   0.0741080), wk =   0.1111111
        k(    9) = (   0.3333333   0.3677104   0.0000000), wk =   0.1111111
        k(   10) = (   0.3333333   0.3677104   0.0741080), wk =   0.1111111
        k(   11) = (   0.3333333   0.7354208   0.0000000), wk =   0.1111111
        k(   12) = (   0.3333333   0.7354208   0.0741080), wk =   0.1111111
        k(   13) = (   0.6666667   0.0000000   0.0000000), wk =   0.1111111
        k(   14) = (   0.6666667   0.0000000   0.0741080), wk =   0.1111111
        k(   15) = (   0.6666667   0.3677104   0.0000000), wk =   0.1111111
        k(   16) = (   0.6666667   0.3677104   0.0741080), wk =   0.1111111
        k(   17) = (   0.6666667   0.7354208   0.0000000), wk =   0.1111111
        k(   18) = (   0.6666667   0.7354208   0.0741080), wk =   0.1111111

                       cryst. coord.
        k(    1) = (   0.0000000   0.0000000   0.0000000), wk =   0.1111111
        k(    2) = (   0.0000000   0.0000000   0.5000000), wk =   0.1111111
        k(    3) = (   0.0000000   0.3333333   0.0000000), wk =   0.1111111
        k(    4) = (   0.0000000   0.3333333   0.5000000), wk =   0.1111111
        k(    5) = (   0.0000000   0.6666667   0.0000000), wk =   0.1111111
        k(    6) = (   0.0000000   0.6666667   0.5000000), wk =   0.1111111
        k(    7) = (   0.3333333   0.0000000   0.0000000), wk =   0.1111111
        k(    8) = (   0.3333333   0.0000000   0.5000000), wk =   0.1111111
        k(    9) = (   0.3333333   0.3333333   0.0000000), wk =   0.1111111
        k(   10) = (   0.3333333   0.3333333   0.5000000), wk =   0.1111111
        k(   11) = (   0.3333333   0.6666667   0.0000000), wk =   0.1111111
        k(   12) = (   0.3333333   0.6666667   0.5000000), wk =   0.1111111
        k(   13) = (   0.6666667   0.0000000   0.0000000), wk =   0.1111111
        k(   14) = (   0.6666667   0.0000000   0.5000000), wk =   0.1111111
        k(   15) = (   0.6666667   0.3333333   0.0000000), wk =   0.1111111
        k(   16) = (   0.6666667   0.3333333   0.5000000), wk =   0.1111111
        k(   17) = (   0.6666667   0.6666667   0.0000000), wk =   0.1111111
        k(   18) = (   0.6666667   0.6666667   0.5000000), wk =   0.1111111

     Dense  grid:   618459 G-vectors     FFT dimensions: (  60,  54, 400)

     Dynamical RAM for                 wfc:      14.75 MB

     Dynamical RAM for     wfc (w. buffer):     280.18 MB

     Dynamical RAM for           str. fact:       1.18 MB

     Dynamical RAM for           local pot:       0.00 MB

     Dynamical RAM for          nlocal pot:      67.24 MB

     Dynamical RAM for                qrad:       2.90 MB

     Dynamical RAM for          rho,v,vnew:       1.85 MB

     Dynamical RAM for               rhoin:       0.62 MB

     Dynamical RAM for            rho*nmix:       4.72 MB

     Dynamical RAM for           G-vectors:       1.25 MB

     Dynamical RAM for          h,s,v(r/c):       1.83 MB

     Dynamical RAM for          <psi|beta>:      11.13 MB

     Dynamical RAM for                 psi:      29.49 MB

     Dynamical RAM for                hpsi:      29.49 MB

     Dynamical RAM for      wfcinit/wfcrot:      67.53 MB

     Estimated static dynamical RAM per process >     358.30 MB

     Estimated max dynamical RAM per process >     434.96 MB

     Estimated total dynamical RAM >      13.59 GB

     Check: negative core charge=   -0.000174

     Initial potential from superposition of free atoms

     starting charge     799.9931, renormalised to     800.0000
     Starting wfcs are  744 randomized atomic wfcs

     total cpu time spent up to now is       65.4 secs

     per-process dynamical memory:   424.0 Mb

     Self-consistent Calculation

     iteration #  1     ecut=    40.00 Ry     beta= 0.60
     Davidson diagonalization with overlap

---- Real-time Memory Report at c_bands before calling an iterative solver
          1363 MiB given to the printing process from OS
          1089 MiB allocation reported by mallinfo(arena+hblkhd)
         54571 MiB available memory on the node where the printing process lives
------------------
     ethr =  1.00E-02,  avg # of iterations =  2.0
     Davidson diagonalization with overlap

---- Real-time Memory Report at c_bands before calling an iterative solver
          1436 MiB given to the printing process from OS
          1090 MiB allocation reported by mallinfo(arena+hblkhd)
         53964 MiB available memory on the node where the printing process lives
------------------
     ethr =  1.00E-02,  avg # of iterations =  1.0
     Davidson diagonalization with overlap

---- Real-time Memory Report at c_bands before calling an iterative solver
          1436 MiB given to the printing process from OS
          1090 MiB allocation reported by mallinfo(arena+hblkhd)
         54015 MiB available memory on the node where the printing process lives
------------------
     ethr =  1.00E-02,  avg # of iterations =  1.0

     Expectation value of exp(iGx):  (-5.37706651402432172E-006,1.46508230162593835E-005)   1.0000000000000000     
     Electronic Dipole per cell (Ry a.u.)   12.426228809558680     
     Ionic Dipole per cell (Ry a.u.)   8514.4840055295062     

     Expectation value of exp(iGx): (-7.15380295176960421E-006,-7.89093275940397311E-005)  0.90651042691472905     
     Electronic Dipole per cell (Ry a.u.)  -9.7332736284933450     
     Ionic Dipole per cell (Ry a.u.)   16206.969424524397     

     Expectation value of exp(iGx):            (0.46787063297721343,-0.46788520864300315)   6.7469128969919776     
     Electronic Dipole per cell (Ry a.u.)  -34.250411462528092     
     Ionic Dipole per cell (Ry a.u.)   47164.523304616276     
Electronic Dipole on Cartesian axes
           1   12.426228809558680     
           2  -9.7332736284933450     
           3  -34.250411462528092     
Ionic Dipole on Cartesian axes
           1   8514.4840055295062     
           2   16206.969424524397     
           3   47164.523304616276     

     total cpu time spent up to now is     1910.1 secs

     total energy              =   -2711.79929796 Ry
     estimated scf accuracy    <      20.43263145 Ry

     iteration #  2     ecut=    40.00 Ry     beta= 0.60
     Davidson diagonalization with overlap

---- Real-time Memory Report at c_bands before calling an iterative solver
          1451 MiB given to the printing process from OS
          1104 MiB allocation reported by mallinfo(arena+hblkhd)
         53503 MiB available memory on the node where the printing process lives
------------------
     ethr =  2.55E-03,  avg # of iterations =  3.3
     Davidson diagonalization with overlap

---- Real-time Memory Report at c_bands before calling an iterative solver
          1451 MiB given to the printing process from OS
          1104 MiB allocation reported by mallinfo(arena+hblkhd)
         53595 MiB available memory on the node where the printing process lives
------------------
     ethr =  2.55E-03,  avg # of iterations =  1.0
     Davidson diagonalization with overlap

---- Real-time Memory Report at c_bands before calling an iterative solver
          1451 MiB given to the printing process from OS
          1104 MiB allocation reported by mallinfo(arena+hblkhd)
         53429 MiB available memory on the node where the printing process lives
------------------
     ethr =  2.55E-03,  avg # of iterations =  1.0

     Expectation value of exp(iGx):   (1.26099287206346421E-006,4.61631658281276916E-006)   1.0000000000000000     
     Electronic Dipole per cell (Ry a.u.)   8.4292112702531128     
     Ionic Dipole per cell (Ry a.u.)   8514.4840055295062     

     Expectation value of exp(iGx): (-4.47860371127486495E-006,-2.34342190951930443E-005)  0.90651042691472905     
     Electronic Dipole per cell (Ry a.u.)  -10.309963300272219     
     Ionic Dipole per cell (Ry a.u.)   16206.969424524397     

     Expectation value of exp(iGx):            (0.46133390811447195,-0.43256044461554499)   6.7469128969919776     
     Electronic Dipole per cell (Ry a.u.)  -32.846520110982702     
     Ionic Dipole per cell (Ry a.u.)   47164.523304616276     
Electronic Dipole on Cartesian axes
           1   8.4292112702531128     
           2  -10.309963300272219     
           3  -32.846520110982702     
Ionic Dipole on Cartesian axes
           1   8514.4840055295062     
           2   16206.969424524397     
           3   47164.523304616276     

     total cpu time spent up to now is     3743.3 secs

     total energy              =   -2714.90194012 Ry
     estimated scf accuracy    <       4.31788149 Ry

     iteration #  3     ecut=    40.00 Ry     beta= 0.60
     Davidson diagonalization with overlap

---- Real-time Memory Report at c_bands before calling an iterative solver
          1451 MiB given to the printing process from OS
          1104 MiB allocation reported by mallinfo(arena+hblkhd)
         53658 MiB available memory on the node where the printing process lives
------------------
     ethr =  5.40E-04,  avg # of iterations =  4.6
     Davidson diagonalization with overlap

---- Real-time Memory Report at c_bands before calling an iterative solver
          1451 MiB given to the printing process from OS
          1104 MiB allocation reported by mallinfo(arena+hblkhd)
         53692 MiB available memory on the node where the printing process lives
------------------
     ethr =  5.40E-04,  avg # of iterations =  1.0
     Davidson diagonalization with overlap

---- Real-time Memory Report at c_bands before calling an iterative solver
          1451 MiB given to the printing process from OS
          1104 MiB allocation reported by mallinfo(arena+hblkhd)
         53655 MiB available memory on the node where the printing process lives
------------------
     ethr =  5.40E-04,  avg # of iterations =  1.0

     Expectation value of exp(iGx):  (-1.47373493453944676E-006,6.29944130413713982E-006)   1.0000000000000000     
     Electronic Dipole per cell (Ry a.u.)   11.638094398037248     
     Ionic Dipole per cell (Ry a.u.)   8514.4840055295062     

     Expectation value of exp(iGx): (-3.33700576747647874E-006,-2.66742338852442093E-005)  0.90651042691472905     
     Electronic Dipole per cell (Ry a.u.)  -9.9327442940580770     
     Ionic Dipole per cell (Ry a.u.)   16206.969424524397     

     Expectation value of exp(iGx):            (0.48536264821700004,-0.41076850238113832)   6.7469128969919776     
     Electronic Dipole per cell (Ry a.u.)  -30.628132860113571     
     Ionic Dipole per cell (Ry a.u.)   47164.523304616276     
Electronic Dipole on Cartesian axes
           1   11.638094398037248     
           2  -9.9327442940580770     
           3  -30.628132860113571     
Ionic Dipole on Cartesian axes
           1   8514.4840055295062     
           2   16206.969424524397     
           3   47164.523304616276     

     total cpu time spent up to now is     5583.6 secs

     total energy              =   -2715.67969543 Ry
     estimated scf accuracy    <       0.87850173 Ry

     iteration #  4     ecut=    40.00 Ry     beta= 0.60
     Davidson diagonalization with overlap

---- Real-time Memory Report at c_bands before calling an iterative solver
          1451 MiB given to the printing process from OS
          1104 MiB allocation reported by mallinfo(arena+hblkhd)
         53469 MiB available memory on the node where the printing process lives
------------------
     c_bands:  3 eigenvalues not converged
     c_bands:  1 eigenvalues not converged
     c_bands:  3 eigenvalues not converged
     c_bands:  3 eigenvalues not converged
     c_bands:  3 eigenvalues not converged
     c_bands:  2 eigenvalues not converged
     ethr =  1.10E-04,  avg # of iterations = 16.7
     Davidson diagonalization with overlap

---- Real-time Memory Report at c_bands before calling an iterative solver
          1451 MiB given to the printing process from OS
          1104 MiB allocation reported by mallinfo(arena+hblkhd)
         53343 MiB available memory on the node where the printing process lives
------------------
     ethr =  1.10E-04,  avg # of iterations =  3.6
     Davidson diagonalization with overlap

---- Real-time Memory Report at c_bands before calling an iterative solver
          1451 MiB given to the printing process from OS
          1104 MiB allocation reported by mallinfo(arena+hblkhd)
         53273 MiB available memory on the node where the printing process lives
------------------
     ethr =  1.10E-04,  avg # of iterations =  1.0

     Expectation value of exp(iGx):   (3.51628665669334685E-006,4.61068122396469337E-006)   1.0000000000000000     
     Electronic Dipole per cell (Ry a.u.)   5.9415288197274290     
     Ionic Dipole per cell (Ry a.u.)   8514.4840055295062     

     Expectation value of exp(iGx):  (1.46248527932580288E-005,-1.37760707096237251E-005)  0.90651042691472905     
     Electronic Dipole per cell (Ry a.u.)  -4.4267167300451442     
     Ionic Dipole per cell (Ry a.u.)   16206.969424524397     

     Expectation value of exp(iGx):            (-0.45342068201440322,0.34998573128887067)   6.7469128969919776     
     Electronic Dipole per cell (Ry a.u.)   108.33282933992626     
     Ionic Dipole per cell (Ry a.u.)   47164.523304616276     
Electronic Dipole on Cartesian axes
           1   5.9415288197274290     
           2  -4.4267167300451442     
           3   108.33282933992625     
Ionic Dipole on Cartesian axes
           1   8514.4840055295062     
           2   16206.969424524397     
           3   47164.523304616276     

     total cpu time spent up to now is     7532.5 secs

     total energy              =   -2714.99548732 Ry
     estimated scf accuracy    <      15.81922689 Ry

     iteration #  5     ecut=    40.00 Ry     beta= 0.60
     Davidson diagonalization with overlap

---- Real-time Memory Report at c_bands before calling an iterative solver
          1451 MiB given to the printing process from OS
          1104 MiB allocation reported by mallinfo(arena+hblkhd)
         53398 MiB available memory on the node where the printing process lives
------------------
     c_bands:  1 eigenvalues not converged
     c_bands:  1 eigenvalues not converged
     c_bands:  1 eigenvalues not converged
     c_bands:  1 eigenvalues not converged
     ethr =  1.10E-04,  avg # of iterations = 19.2
     Davidson diagonalization with overlap

---- Real-time Memory Report at c_bands before calling an iterative solver
          1466 MiB given to the printing process from OS
          1120 MiB allocation reported by mallinfo(arena+hblkhd)
         53055 MiB available memory on the node where the printing process lives
------------------
     ethr =  1.10E-04,  avg # of iterations = 10.0
     Davidson diagonalization with overlap

---- Real-time Memory Report at c_bands before calling an iterative solver
          1466 MiB given to the printing process from OS
          1120 MiB allocation reported by mallinfo(arena+hblkhd)
         53126 MiB available memory on the node where the printing process lives
------------------
     c_bands:  1 eigenvalues not converged
     ethr =  1.10E-04,  avg # of iterations = 11.0

     Expectation value of exp(iGx):  (1.21912344360502030E-007,-2.59751759995318281E-006)   1.0000000000000000     
     Electronic Dipole per cell (Ry a.u.)  -9.8495794271463968     
     Ionic Dipole per cell (Ry a.u.)   8514.4840055295062     

     Expectation value of exp(iGx):   (2.82622442163451800E-006,5.36493390632859716E-006)  0.90651042691472905     
     Electronic Dipole per cell (Ry a.u.)   6.3627063000469768     
     Ionic Dipole per cell (Ry a.u.)   16206.969424524397     

     Expectation value of exp(iGx):             (0.24964506834872779,0.40696311773316196)   6.7469128969919776     
     Electronic Dipole per cell (Ry a.u.)   44.504578588641230     
     Ionic Dipole per cell (Ry a.u.)   47164.523304616276     
Electronic Dipole on Cartesian axes
           1  -9.8495794271463968     
           2   6.3627063000469768     
           3   44.504578588641230     
Ionic Dipole on Cartesian axes
           1   8514.4840055295062     
           2   16206.969424524397     
           3   47164.523304616276     

     total cpu time spent up to now is     9502.5 secs

     total energy              =   -2715.09778757 Ry
     estimated scf accuracy    <      24.21697445 Ry

     iteration #  6     ecut=    40.00 Ry     beta= 0.60
     Davidson diagonalization with overlap

---- Real-time Memory Report at c_bands before calling an iterative solver
          1466 MiB given to the printing process from OS
          1120 MiB allocation reported by mallinfo(arena+hblkhd)
         53099 MiB available memory on the node where the printing process lives
------------------
     ethr =  1.10E-04,  avg # of iterations = 11.5
     Davidson diagonalization with overlap

---- Real-time Memory Report at c_bands before calling an iterative solver
          1466 MiB given to the printing process from OS
          1120 MiB allocation reported by mallinfo(arena+hblkhd)
         53082 MiB available memory on the node where the printing process lives
------------------
     ethr =  1.10E-04,  avg # of iterations =  1.2
     Davidson diagonalization with overlap

---- Real-time Memory Report at c_bands before calling an iterative solver
          1466 MiB given to the printing process from OS
          1120 MiB allocation reported by mallinfo(arena+hblkhd)
         53077 MiB available memory on the node where the printing process lives
------------------
     ethr =  1.10E-04,  avg # of iterations =  1.0

     Expectation value of exp(iGx):   (2.04814410430229572E-006,6.04853098796780677E-006)   1.0000000000000000     
     Electronic Dipole per cell (Ry a.u.)   8.0424090921248155     
     Ionic Dipole per cell (Ry a.u.)   8514.4840055295062     

     Expectation value of exp(iGx): (-1.04862073717544110E-005,-2.47272237444063597E-005)  0.90651042691472905     
     Electronic Dipole per cell (Ry a.u.)  -11.553571808976431     
     Ionic Dipole per cell (Ry a.u.)   16206.969424524397     

     Expectation value of exp(iGx):            (0.47521401107142536,-0.43235791579955524)   6.7469128969919776     
     Electronic Dipole per cell (Ry a.u.)  -32.192059198288128     
     Ionic Dipole per cell (Ry a.u.)   47164.523304616276     
Electronic Dipole on Cartesian axes
           1   8.0424090921248155     
           2  -11.553571808976431     
           3  -32.192059198288128     
Ionic Dipole on Cartesian axes
           1   8514.4840055295062     
           2   16206.969424524397     
           3   47164.523304616276     

     total cpu time spent up to now is    11294.5 secs

     total energy              =   -2715.87529758 Ry
     estimated scf accuracy    <       0.57025051 Ry

     iteration #  7     ecut=    40.00 Ry     beta= 0.60
     Davidson diagonalization with overlap

---- Real-time Memory Report at c_bands before calling an iterative solver
          1467 MiB given to the printing process from OS
          1120 MiB allocation reported by mallinfo(arena+hblkhd)
         53082 MiB available memory on the node where the printing process lives
------------------
     ethr =  7.13E-05,  avg # of iterations =  5.0
     Davidson diagonalization with overlap

---- Real-time Memory Report at c_bands before calling an iterative solver
          1467 MiB given to the printing process from OS
          1120 MiB allocation reported by mallinfo(arena+hblkhd)
         53079 MiB available memory on the node where the printing process lives
------------------
     ethr =  7.13E-05,  avg # of iterations =  1.0
     Davidson diagonalization with overlap

---- Real-time Memory Report at c_bands before calling an iterative solver
          1467 MiB given to the printing process from OS
          1120 MiB allocation reported by mallinfo(arena+hblkhd)
         53100 MiB available memory on the node where the printing process lives
------------------
     ethr =  7.13E-05,  avg # of iterations =  1.0

     Expectation value of exp(iGx):   (9.85796137061110478E-007,6.08578075746051297E-006)   1.0000000000000000     
     Electronic Dipole per cell (Ry a.u.)   9.1147605933953404     
     Ionic Dipole per cell (Ry a.u.)   8514.4840055295062     

     Expectation value of exp(iGx): (-7.41040729153978329E-006,-2.48958513230525547E-005)  0.90651042691472905     
     Electronic Dipole per cell (Ry a.u.)  -10.898623684178672     
     Ionic Dipole per cell (Ry a.u.)   16206.969424524397     

     Expectation value of exp(iGx):            (0.48287965161459606,-0.42135496702799935)   6.7469128969919776     
     Electronic Dipole per cell (Ry a.u.)  -31.287175221399142     
     Ionic Dipole per cell (Ry a.u.)   47164.523304616276     
Electronic Dipole on Cartesian axes
           1   9.1147605933953404     
           2  -10.898623684178672     
           3  -31.287175221399142     
Ionic Dipole on Cartesian axes
           1   8514.4840055295062     
           2   16206.969424524397     
           3   47164.523304616276     

     total cpu time spent up to now is    13006.5 secs

     total energy              =   -2715.90347826 Ry
     estimated scf accuracy    <       0.20341112 Ry

     iteration #  8     ecut=    40.00 Ry     beta= 0.60
     Davidson diagonalization with overlap

---- Real-time Memory Report at c_bands before calling an iterative solver
          1467 MiB given to the printing process from OS
          1120 MiB allocation reported by mallinfo(arena+hblkhd)
         53079 MiB available memory on the node where the printing process lives
------------------
     ethr =  2.54E-05,  avg # of iterations =  3.6
     Davidson diagonalization with overlap

---- Real-time Memory Report at c_bands before calling an iterative solver
          1467 MiB given to the printing process from OS
          1120 MiB allocation reported by mallinfo(arena+hblkhd)
         53078 MiB available memory on the node where the printing process lives
------------------
     ethr =  2.54E-05,  avg # of iterations =  1.0
     Davidson diagonalization with overlap

---- Real-time Memory Report at c_bands before calling an iterative solver
          1467 MiB given to the printing process from OS
          1120 MiB allocation reported by mallinfo(arena+hblkhd)
         53079 MiB available memory on the node where the printing process lives
------------------
     ethr =  2.54E-05,  avg # of iterations =  1.0

     Expectation value of exp(iGx):   (6.75646757384305658E-007,6.11506226280913226E-006)   1.0000000000000000     
     Electronic Dipole per cell (Ry a.u.)   9.4414609056415895     
     Ionic Dipole per cell (Ry a.u.)   8514.4840055295062     

     Expectation value of exp(iGx): (-6.85351116601069947E-006,-2.49377936997833789E-005)  0.90651042691472905     
     Electronic Dipole per cell (Ry a.u.)  -10.774981444331447     
     Ionic Dipole per cell (Ry a.u.)   16206.969424524397     

     Expectation value of exp(iGx):            (0.48303308724122429,-0.42054756108803587)   6.7469128969919776     
     Electronic Dipole per cell (Ry a.u.)  -31.238883389023989     
     Ionic Dipole per cell (Ry a.u.)   47164.523304616276     
Electronic Dipole on Cartesian axes
           1   9.4414609056415895     
           2  -10.774981444331447     
           3  -31.238883389023989     
Ionic Dipole on Cartesian axes
           1   8514.4840055295062     
           2   16206.969424524397     
           3   47164.523304616276     

     total cpu time spent up to now is    14683.5 secs

     total energy              =   -2715.89613628 Ry
     estimated scf accuracy    <       0.13476658 Ry

     iteration #  9     ecut=    40.00 Ry     beta= 0.60
     Davidson diagonalization with overlap

---- Real-time Memory Report at c_bands before calling an iterative solver
          1467 MiB given to the printing process from OS
          1120 MiB allocation reported by mallinfo(arena+hblkhd)
         53058 MiB available memory on the node where the printing process lives
------------------
     ethr =  1.68E-05,  avg # of iterations =  2.8
     Davidson diagonalization with overlap

---- Real-time Memory Report at c_bands before calling an iterative solver
          1467 MiB given to the printing process from OS
          1120 MiB allocation reported by mallinfo(arena+hblkhd)
         53069 MiB available memory on the node where the printing process lives
------------------
     ethr =  1.68E-05,  avg # of iterations =  1.0
     Davidson diagonalization with overlap

---- Real-time Memory Report at c_bands before calling an iterative solver
          1467 MiB given to the printing process from OS
          1120 MiB allocation reported by mallinfo(arena+hblkhd)
         53076 MiB available memory on the node where the printing process lives
------------------
     ethr =  1.68E-05,  avg # of iterations =  1.0

     Expectation value of exp(iGx):   (5.54548138744659137E-007,6.10483217710421694E-006)   1.0000000000000000     
     Electronic Dipole per cell (Ry a.u.)   9.5671979125585800     
     Ionic Dipole per cell (Ry a.u.)   8514.4840055295062     

     Expectation value of exp(iGx): (-6.09787773402778735E-006,-2.50680768552056454E-005)  0.90651042691472905     
     Electronic Dipole per cell (Ry a.u.)  -10.601640843460265     
     Ionic Dipole per cell (Ry a.u.)   16206.969424524397     

     Expectation value of exp(iGx):            (0.48272980708878827,-0.42034565073856645)   6.7469128969919776     
     Electronic Dipole per cell (Ry a.u.)  -31.242076143624345     
     Ionic Dipole per cell (Ry a.u.)   47164.523304616276     
Electronic Dipole on Cartesian axes
           1   9.5671979125585800     
           2  -10.601640843460265     
           3  -31.242076143624345     
Ionic Dipole on Cartesian axes
           1   8514.4840055295062     
           2   16206.969424524397     
           3   47164.523304616276     

     total cpu time spent up to now is    16357.8 secs

     total energy              =   -2715.89161970 Ry
     estimated scf accuracy    <       0.08266154 Ry

     iteration # 10     ecut=    40.00 Ry     beta= 0.60
     Davidson diagonalization with overlap

---- Real-time Memory Report at c_bands before calling an iterative solver
          1467 MiB given to the printing process from OS
          1120 MiB allocation reported by mallinfo(arena+hblkhd)
         53054 MiB available memory on the node where the printing process lives
------------------
     ethr =  1.03E-05,  avg # of iterations =  5.3
     Davidson diagonalization with overlap

---- Real-time Memory Report at c_bands before calling an iterative solver
          1467 MiB given to the printing process from OS
          1120 MiB allocation reported by mallinfo(arena+hblkhd)
         53035 MiB available memory on the node where the printing process lives
------------------
     ethr =  1.03E-05,  avg # of iterations =  1.0
     Davidson diagonalization with overlap

---- Real-time Memory Report at c_bands before calling an iterative solver
          1467 MiB given to the printing process from OS
          1120 MiB allocation reported by mallinfo(arena+hblkhd)
         53058 MiB available memory on the node where the printing process lives
------------------
     ethr =  1.03E-05,  avg # of iterations =  1.0

     Expectation value of exp(iGx):   (2.70453656600665173E-007,6.04740669404182886E-006)   1.0000000000000000     
     Electronic Dipole per cell (Ry a.u.)   9.8638460253686358     
     Ionic Dipole per cell (Ry a.u.)   8514.4840055295062     

     Expectation value of exp(iGx): (-5.08160822941277003E-006,-2.50528496166198084E-005)  0.90651042691472905     
     Electronic Dipole per cell (Ry a.u.)  -10.376076738151564     
     Ionic Dipole per cell (Ry a.u.)   16206.969424524397     

     Expectation value of exp(iGx):            (0.48384674013400086,-0.41574090077502507)   6.7469128969919776     
     Electronic Dipole per cell (Ry a.u.)  -30.954542088179306     
     Ionic Dipole per cell (Ry a.u.)   47164.523304616276     
Electronic Dipole on Cartesian axes
           1   9.8638460253686358     
           2  -10.376076738151564     
           3  -30.954542088179306     
Ionic Dipole on Cartesian axes
           1   8514.4840055295062     
           2   16206.969424524397     
           3   47164.523304616276     

     total cpu time spent up to now is    18050.3 secs

     total energy              =   -2715.89265236 Ry
     estimated scf accuracy    <       0.03800710 Ry

     iteration # 11     ecut=    40.00 Ry     beta= 0.60
     Davidson diagonalization with overlap

---- Real-time Memory Report at c_bands before calling an iterative solver
          1467 MiB given to the printing process from OS
          1120 MiB allocation reported by mallinfo(arena+hblkhd)
         53079 MiB available memory on the node where the printing process lives
------------------
     ethr =  4.75E-06,  avg # of iterations =  2.4
     Davidson diagonalization with overlap

---- Real-time Memory Report at c_bands before calling an iterative solver
          1467 MiB given to the printing process from OS
          1120 MiB allocation reported by mallinfo(arena+hblkhd)
         53169 MiB available memory on the node where the printing process lives
------------------
     ethr =  4.75E-06,  avg # of iterations =  1.0
     Davidson diagonalization with overlap

---- Real-time Memory Report at c_bands before calling an iterative solver
          1467 MiB given to the printing process from OS
          1120 MiB allocation reported by mallinfo(arena+hblkhd)
         53167 MiB available memory on the node where the printing process lives
------------------
     ethr =  4.75E-06,  avg # of iterations =  1.0

     Expectation value of exp(iGx):   (2.22231831976372890E-007,6.03343860406160595E-006)   1.0000000000000000     
     Electronic Dipole per cell (Ry a.u.)   9.9147503131211394     
     Ionic Dipole per cell (Ry a.u.)   8514.4840055295062     

     Expectation value of exp(iGx): (-4.87340221008756455E-006,-2.50587916392796517E-005)  0.90651042691472905     
     Electronic Dipole per cell (Ry a.u.)  -10.328972157698937     
     Ionic Dipole per cell (Ry a.u.)   16206.969424524397     

     Expectation value of exp(iGx):            (0.48371203345285357,-0.41547717952528329)   6.7469128969919776     
     Electronic Dipole per cell (Ry a.u.)  -30.946866472714639     
     Ionic Dipole per cell (Ry a.u.)   47164.523304616276     
Electronic Dipole on Cartesian axes
           1   9.9147503131211394     
           2  -10.328972157698939     
           3  -30.946866472714639     
Ionic Dipole on Cartesian axes
           1   8514.4840055295062     
           2   16206.969424524397     
           3   47164.523304616276     

     total cpu time spent up to now is    19716.0 secs

     total energy              =   -2715.88979467 Ry
     estimated scf accuracy    <       0.03064577 Ry

     iteration # 12     ecut=    40.00 Ry     beta= 0.60
     Davidson diagonalization with overlap

---- Real-time Memory Report at c_bands before calling an iterative solver
          1467 MiB given to the printing process from OS
          1120 MiB allocation reported by mallinfo(arena+hblkhd)
         53184 MiB available memory on the node where the printing process lives
------------------
     ethr =  3.83E-06,  avg # of iterations =  6.3
     Davidson diagonalization with overlap

---- Real-time Memory Report at c_bands before calling an iterative solver
          1467 MiB given to the printing process from OS
          1120 MiB allocation reported by mallinfo(arena+hblkhd)
         53216 MiB available memory on the node where the printing process lives
------------------
     ethr =  3.83E-06,  avg # of iterations =  1.0
     Davidson diagonalization with overlap

---- Real-time Memory Report at c_bands before calling an iterative solver
          1467 MiB given to the printing process from OS
          1120 MiB allocation reported by mallinfo(arena+hblkhd)
         53221 MiB available memory on the node where the printing process lives
------------------
     ethr =  3.83E-06,  avg # of iterations =  1.0

     Expectation value of exp(iGx):   (2.97096160735953603E-008,5.96155850171433840E-006)   1.0000000000000000     
     Electronic Dipole per cell (Ry a.u.)   10.120501752098967     
     Ionic Dipole per cell (Ry a.u.)   8514.4840055295062     

     Expectation value of exp(iGx): (-4.31771132542985363E-006,-2.48901752102872177E-005)  0.90651042691472905     
     Electronic Dipole per cell (Ry a.u.)  -10.209915154461710     
     Ionic Dipole per cell (Ry a.u.)   16206.969424524397     

     Expectation value of exp(iGx):            (0.48571612783501816,-0.40860797078324640)   6.7469128969919776     
     Electronic Dipole per cell (Ry a.u.)  -30.499138790766906     
     Ionic Dipole per cell (Ry a.u.)   47164.523304616276     
Electronic Dipole on Cartesian axes
           1   10.120501752098967     
           2  -10.209915154461710     
           3  -30.499138790766906     
Ionic Dipole on Cartesian axes
           1   8514.4840055295062     
           2   16206.969424524397     
           3   47164.523304616276     

     total cpu time spent up to now is    21405.1 secs

     total energy              =   -2715.88822277 Ry
     estimated scf accuracy    <       0.01632619 Ry

     iteration # 13     ecut=    40.00 Ry     beta= 0.60
     Davidson diagonalization with overlap

---- Real-time Memory Report at c_bands before calling an iterative solver
          1467 MiB given to the printing process from OS
          1120 MiB allocation reported by mallinfo(arena+hblkhd)
         53077 MiB available memory on the node where the printing process lives
------------------
     ethr =  2.04E-06,  avg # of iterations =  9.0
     Davidson diagonalization with overlap

---- Real-time Memory Report at c_bands before calling an iterative solver
          1467 MiB given to the printing process from OS
          1120 MiB allocation reported by mallinfo(arena+hblkhd)
         53079 MiB available memory on the node where the printing process lives
------------------
     ethr =  2.04E-06,  avg # of iterations =  2.4
     Davidson diagonalization with overlap

---- Real-time Memory Report at c_bands before calling an iterative solver
          1467 MiB given to the printing process from OS
          1120 MiB allocation reported by mallinfo(arena+hblkhd)
         53079 MiB available memory on the node where the printing process lives
------------------
     ethr =  2.04E-06,  avg # of iterations =  1.8

     Expectation value of exp(iGx):  (-2.20877900383158909E-007,5.82468687503310992E-006)   1.0000000000000000     
     Electronic Dipole per cell (Ry a.u.)   10.397693938354921     
     Ionic Dipole per cell (Ry a.u.)   8514.4840055295062     

     Expectation value of exp(iGx): (-3.37622513611707148E-006,-2.45855430979494378E-005)  0.90651042691472905     
     Electronic Dipole per cell (Ry a.u.)  -10.003150158087427     
     Ionic Dipole per cell (Ry a.u.)   16206.969424524397     

     Expectation value of exp(iGx):            (0.48671216184440025,-0.39875934744963865)   6.7469128969919776     
     Electronic Dipole per cell (Ry a.u.)  -29.932352583305654     
     Ionic Dipole per cell (Ry a.u.)   47164.523304616276     
Electronic Dipole on Cartesian axes
           1   10.397693938354921     
           2  -10.003150158087427     
           3  -29.932352583305654     
Ionic Dipole on Cartesian axes
           1   8514.4840055295062     
           2   16206.969424524397     
           3   47164.523304616276     

     total cpu time spent up to now is    23137.3 secs

     total energy              =   -2715.88924830 Ry
     estimated scf accuracy    <       0.00588717 Ry

     iteration # 14     ecut=    40.00 Ry     beta= 0.60
     Davidson diagonalization with overlap

---- Real-time Memory Report at c_bands before calling an iterative solver
          1467 MiB given to the printing process from OS
          1120 MiB allocation reported by mallinfo(arena+hblkhd)
         53077 MiB available memory on the node where the printing process lives
------------------
     ethr =  7.36E-07,  avg # of iterations = 10.3
     Davidson diagonalization with overlap

[...]
     1.0000   1.0000   1.0000   1.0000   1.0000   1.0000   1.0000   1.0000
     1.0000   1.0000   1.0000   1.0000   1.0000   1.0000   1.0000   1.0000
     1.0000   1.0000   1.0000   1.0000   1.0000   1.0000   1.0000   1.0000
     1.0000   1.0000   1.0000   1.0000   1.0000   1.0000   1.0000   1.0000
     1.0000   1.0000   1.0000   1.0000   1.0000   1.0000   1.0000   1.0000
     1.0000   1.0000   1.0000   1.0000   1.0000   1.0000   1.0000   1.0000
     1.0000   1.0000   1.0000   1.0000   1.0000   1.0000   1.0000   1.0000
     1.0000   1.0000   1.0000   1.0000   1.0000   1.0000   1.0000   1.0000
     1.0000   1.0000   1.0000   1.0000   1.0000   1.0000   1.0000   1.0000
     1.0000   1.0000   1.0000   1.0000   1.0000   1.0000   1.0000   1.0000
     1.0000   1.0000   1.0000   1.0000   1.0000   1.0000   1.0000   1.0000
     1.0000   1.0000   1.0000   1.0000   1.0000   1.0000   1.0000   1.0000
     1.0000   1.0000   1.0000   1.0000   1.0000   1.0000   1.0000   1.0000
     1.0000   1.0000   1.0000   1.0000   1.0000   1.0000   1.0000   1.0000

          k = 0.6667 0.7354 0.0000 ( 77366 PWs)   bands (ev):

   -21.9403 -21.9038 -21.9029 -21.8808 -21.8646 -21.8464 -21.7717 -21.7594
   -21.4899 -21.4317 -21.2600 -21.2175 -21.1640 -21.1631 -21.1040 -21.0955
   -21.0810 -21.0766 -21.0099 -20.9560 -20.9463 -20.8448 -20.7946 -20.7343
   -16.7019 -16.6956 -16.6889 -16.5817 -16.5130 -16.4495 -16.3931 -16.3824
   -15.6013 -15.5881 -15.5380 -15.5223 -15.0549 -15.0316 -14.9993 -14.9587
   -14.8412 -14.7653 -14.7408 -14.7072 -14.6115 -14.5489 -14.4837 -14.3635
   -14.3178 -14.2633 -14.2057 -14.1153 -13.5959 -13.5399 -13.4910 -13.4466
   -13.1690 -13.1431 -13.0976 -13.0498 -12.9801 -12.9440 -12.8839 -12.8365
   -12.7266 -12.7151 -12.6883 -12.6496 -12.4975 -12.4539 -12.3198 -12.2492
   -12.2395 -12.1788 -12.1572 -12.1297 -12.1061 -12.0708 -12.0504 -11.9953
   -11.9644 -11.9373 -11.8516 -11.8266 -11.8224 -11.7719 -11.7128 -11.6497
   -11.2840 -11.2167 -11.0536 -10.9676 -10.6121 -10.5640 -10.3929 -10.3767
   -10.3104 -10.2789 -10.2598 -10.2164 -10.0065  -9.9559  -9.8845  -9.8356
    -9.7799  -9.7382  -9.5157  -9.4506  -9.3700  -9.3279  -9.2210  -9.0972
    -9.0710  -9.0504  -9.0323  -8.9624  -8.8350  -8.8094  -8.7813  -8.7401
    -8.6617  -8.6114  -8.5963  -8.4915  -8.4437  -8.4168  -8.3874  -8.3352
    -8.2264  -8.1833  -8.1428  -8.1229  -7.9858  -7.9548  -7.9073  -7.8727
    -7.7865  -7.7236  -7.7181  -7.6791  -7.6730  -7.6218  -7.5564  -7.5426
    -7.4854  -7.4254  -7.3654  -7.2772  -7.2655  -7.2356  -7.2230  -7.0676
    -6.9912  -6.9775  -6.9348  -6.7800  -6.6440  -6.5562  -6.5178  -6.4876
    -6.4666  -6.4457  -6.4277  -6.4088  -6.2980  -6.2739  -6.1809  -6.0905
    -6.0389  -5.9947  -5.9453  -5.9273  -5.8658  -5.7910  -5.7626  -5.7203
    -5.7116  -5.6618  -5.6373  -5.6014  -5.4442  -5.3959  -5.3875  -5.3621
    -5.3392  -5.3125  -5.2889  -5.2612  -5.2559  -5.2343  -5.2202  -5.2059
    -5.1663  -5.1575  -5.1360  -5.1041  -5.0795  -5.0467  -5.0359  -5.0248
    -5.0089  -4.9850  -4.9724  -4.9441  -4.9078  -4.8984  -4.8805  -4.8401
    -4.8330  -4.8119  -4.7939  -4.7643  -4.7522  -4.7221  -4.7016  -4.6849
    -4.6507  -4.6360  -4.6197  -4.5934  -4.5794  -4.5612  -4.5427  -4.5273
    -4.5217  -4.4893  -4.4750  -4.4373  -4.4287  -4.4010  -4.3851  -4.3583
    -4.3455  -4.3162  -4.2907  -4.2775  -4.2609  -4.2344  -4.2058  -4.1842
    -4.1707  -4.1621  -4.1389  -4.1233  -4.0972  -4.0866  -4.0612  -4.0348
    -4.0331  -4.0095  -3.9887  -3.9275  -3.9129  -3.8874  -3.8679  -3.8600
    -3.8166  -3.8066  -3.7461  -3.7175  -3.7052  -3.6870  -3.6602  -3.6436
    -3.6206  -3.6045  -3.5931  -3.5572  -3.5382  -3.5195  -3.4908  -3.4670
    -3.4556  -3.4482  -3.4232  -3.4112  -3.3845  -3.3695  -3.3614  -3.3517
    -3.3319  -3.3036  -3.2728  -3.2628  -3.2403  -3.2226  -3.1962  -3.1837
    -3.1567  -3.0764  -3.0675  -3.0418  -2.9868  -2.9758  -2.9653  -2.9477
    -2.9286  -2.8870  -2.8614  -2.8437  -2.8095  -2.7405  -2.6792  -2.6485
    -2.6241  -2.6151  -2.5775  -2.5324  -2.4986  -2.4670  -2.3852  -2.3348
    -2.2963  -2.2796  -2.2661  -2.2434  -2.2293  -2.1911  -2.1719  -2.1436
    -1.9454  -1.9390  -1.8929  -1.8841  -1.7050  -1.7015  -1.6195  -1.6159
    -1.5258  -1.5151  -1.4677  -1.4417  -1.4003  -1.3704  -1.3383  -1.2956
    -1.2840  -1.2668  -1.1201  -1.0650  -1.0195  -0.9974  -0.9487  -0.9062
    -0.8814  -0.8339  -0.8016  -0.7850  -0.7485  -0.7159  -0.6853  -0.6497
    -0.6419  -0.6055  -0.5672  -0.5414  -0.5017  -0.4896  -0.4840  -0.4305
    -0.4201  -0.3752  -0.3581  -0.3150  -0.1521  -0.1472  -0.1375  -0.1102
    -0.0639  -0.0031   0.0440   0.0627   0.0831   0.1015   0.1073   0.1403
     0.1539   0.1816   0.2239   0.2590   0.2966   0.3254   0.3746   0.4143
     0.4910   0.5307   0.5648   0.6060   0.7601   0.7803   0.8717   0.9635
     1.1221   1.1903   1.3612   1.4286   1.7549   1.8317   1.9455   1.9732

     occupation numbers 
     1.0000   1.0000   1.0000   1.0000   1.0000   1.0000   1.0000   1.0000
     1.0000   1.0000   1.0000   1.0000   1.0000   1.0000   1.0000   1.0000
     1.0000   1.0000   1.0000   1.0000   1.0000   1.0000   1.0000   1.0000
     1.0000   1.0000   1.0000   1.0000   1.0000   1.0000   1.0000   1.0000
     1.0000   1.0000   1.0000   1.0000   1.0000   1.0000   1.0000   1.0000
     1.0000   1.0000   1.0000   1.0000   1.0000   1.0000   1.0000   1.0000
     1.0000   1.0000   1.0000   1.0000   1.0000   1.0000   1.0000   1.0000
     1.0000   1.0000   1.0000   1.0000   1.0000   1.0000   1.0000   1.0000
     1.0000   1.0000   1.0000   1.0000   1.0000   1.0000   1.0000   1.0000
     1.0000   1.0000   1.0000   1.0000   1.0000   1.0000   1.0000   1.0000
     1.0000   1.0000   1.0000   1.0000   1.0000   1.0000   1.0000   1.0000
     1.0000   1.0000   1.0000   1.0000   1.0000   1.0000   1.0000   1.0000
     1.0000   1.0000   1.0000   1.0000   1.0000   1.0000   1.0000   1.0000
     1.0000   1.0000   1.0000   1.0000   1.0000   1.0000   1.0000   1.0000
     1.0000   1.0000   1.0000   1.0000   1.0000   1.0000   1.0000   1.0000
     1.0000   1.0000   1.0000   1.0000   1.0000   1.0000   1.0000   1.0000
     1.0000   1.0000   1.0000   1.0000   1.0000   1.0000   1.0000   1.0000
     1.0000   1.0000   1.0000   1.0000   1.0000   1.0000   1.0000   1.0000
     1.0000   1.0000   1.0000   1.0000   1.0000   1.0000   1.0000   1.0000
     1.0000   1.0000   1.0000   1.0000   1.0000   1.0000   1.0000   1.0000
     1.0000   1.0000   1.0000   1.0000   1.0000   1.0000   1.0000   1.0000
     1.0000   1.0000   1.0000   1.0000   1.0000   1.0000   1.0000   1.0000
     1.0000   1.0000   1.0000   1.0000   1.0000   1.0000   1.0000   1.0000
     1.0000   1.0000   1.0000   1.0000   1.0000   1.0000   1.0000   1.0000
     1.0000   1.0000   1.0000   1.0000   1.0000   1.0000   1.0000   1.0000
     1.0000   1.0000   1.0000   1.0000   1.0000   1.0000   1.0000   1.0000
     1.0000   1.0000   1.0000   1.0000   1.0000   1.0000   1.0000   1.0000
     1.0000   1.0000   1.0000   1.0000   1.0000   1.0000   1.0000   1.0000
     1.0000   1.0000   1.0000   1.0000   1.0000   1.0000   1.0000   1.0000
     1.0000   1.0000   1.0000   1.0000   1.0000   1.0000   1.0000   1.0000
     1.0000   1.0000   1.0000   1.0000   1.0000   1.0000   1.0000   1.0000
     1.0000   1.0000   1.0000   1.0000   1.0000   1.0000   1.0000   1.0000
     1.0000   1.0000   1.0000   1.0000   1.0000   1.0000   1.0000   1.0000
     1.0000   1.0000   1.0000   1.0000   1.0000   1.0000   1.0000   1.0000
     1.0000   1.0000   1.0000   1.0000   1.0000   1.0000   1.0000   1.0000
     1.0000   1.0000   1.0000   1.0000   1.0000   1.0000   1.0000   1.0000
     1.0000   1.0000   1.0000   1.0000   1.0000   1.0000   1.0000   1.0000
     1.0000   1.0000   1.0000   1.0000   1.0000   1.0000   1.0000   1.0000
     1.0000   1.0000   1.0000   1.0000   1.0000   1.0000   1.0000   1.0000
     1.0000   1.0000   1.0000   1.0000   1.0000   1.0000   1.0000   1.0000
     1.0000   1.0000   1.0000   1.0000   1.0000   1.0000   1.0000   1.0000
     1.0000   1.0000   1.0000   1.0000   1.0000   1.0000   1.0000   1.0000
     1.0000   1.0000   1.0000   1.0000   1.0000   1.0000   1.0000   1.0000
     1.0000   1.0000   1.0000   1.0000   1.0000   1.0000   1.0000   1.0000
     1.0000   1.0000   1.0000   1.0000   1.0000   1.0000   1.0000   1.0000
     1.0000   1.0000   1.0000   1.0000   1.0000   1.0000   1.0000   1.0000
     1.0000   1.0000   1.0000   1.0000   1.0000   1.0000   1.0000   1.0000
     1.0000   1.0000   1.0000   1.0000   1.0000   1.0000   1.0000   1.0000
     1.0000   1.0000   1.0000   1.0000   1.0000   1.0000   1.0000   1.0000
     1.0000   1.0000   1.0000   1.0000   1.0000   1.0000   1.0000   1.0000

          k = 0.6667 0.7354 0.0741 ( 77376 PWs)   bands (ev):

   -21.9404 -21.9038 -21.9029 -21.8808 -21.8647 -21.8465 -21.7718 -21.7594
   -21.4900 -21.4318 -21.2599 -21.2176 -21.1641 -21.1632 -21.1040 -21.0955
   -21.0810 -21.0767 -21.0100 -20.9560 -20.9463 -20.8449 -20.7947 -20.7342
   -16.7019 -16.6956 -16.6889 -16.5818 -16.5130 -16.4495 -16.3931 -16.3824
   -15.6013 -15.5882 -15.5380 -15.5224 -15.0531 -15.0343 -14.9991 -14.9592
   -14.8323 -14.7714 -14.7498 -14.7095 -14.5885 -14.5419 -14.5092 -14.3779
   -14.2898 -14.2673 -14.1982 -14.1301 -13.5639 -13.5442 -13.5038 -13.4730
   -13.1455 -13.1292 -13.0925 -13.0608 -12.9934 -12.9475 -12.8807 -12.8342
   -12.7630 -12.7389 -12.6596 -12.6463 -12.4242 -12.3892 -12.3557 -12.3373
   -12.2923 -12.2018 -12.1710 -12.1337 -12.0773 -12.0606 -11.9827 -11.9656
   -11.9386 -11.9121 -11.8685 -11.8281 -11.8210 -11.8112 -11.7453 -11.6820
   -11.1972 -11.1505 -11.1345 -11.0465 -10.5292 -10.4884 -10.4514 -10.4277
   -10.3557 -10.3234 -10.1989 -10.1704 -10.0470 -10.0160  -9.8074  -9.8014
    -9.7859  -9.6984  -9.5912  -9.5133  -9.3211  -9.2830  -9.2397  -9.1230
    -9.0884  -9.0515  -8.9926  -8.9358  -8.8544  -8.7968  -8.7568  -8.7347
    -8.7139  -8.6794  -8.5325  -8.5101  -8.4672  -8.3868  -8.3547  -8.3219
    -8.2351  -8.2061  -8.1251  -8.0959  -8.0399  -8.0191  -7.8537  -7.8112
    -7.7823  -7.7619  -7.7294  -7.6782  -7.6544  -7.6237  -7.5782  -7.5490
    -7.4733  -7.4151  -7.3745  -7.2738  -7.2601  -7.2377  -7.2264  -7.0670
    -6.9948  -6.9743  -6.9350  -6.7796  -6.6441  -6.5553  -6.5250  -6.4961
    -6.4642  -6.4355  -6.4214  -6.4060  -6.3019  -6.2770  -6.1810  -6.0907
    -6.0466  -6.0029  -5.9441  -5.8994  -5.8569  -5.8084  -5.7759  -5.7185
    -5.6987  -5.6856  -5.6327  -5.5873  -5.4452  -5.3943  -5.3828  -5.3617
    -5.3449  -5.3188  -5.2993  -5.2608  -5.2478  -5.2343  -5.2135  -5.2010
    -5.1746  -5.1589  -5.1303  -5.0936  -5.0865  -5.0602  -5.0375  -5.0171
    -5.0053  -4.9899  -4.9737  -4.9423  -4.9110  -4.8981  -4.8717  -4.8477
    -4.8322  -4.8141  -4.7867  -4.7688  -4.7512  -4.7268  -4.6937  -4.6856
    -4.6521  -4.6366  -4.6169  -4.5917  -4.5891  -4.5651  -4.5408  -4.5260
    -4.5156  -4.4961  -4.4689  -4.4485  -4.4140  -4.4086  -4.3819  -4.3685
    -4.3458  -4.3010  -4.2921  -4.2791  -4.2538  -4.2331  -4.2124  -4.1836
    -4.1740  -4.1667  -4.1404  -4.1240  -4.0971  -4.0900  -4.0511  -4.0460
    -4.0314  -4.0220  -3.9690  -3.9262  -3.9159  -3.8871  -3.8681  -3.8604
    -3.8167  -3.8056  -3.7460  -3.7167  -3.7129  -3.6821  -3.6634  -3.6446
    -3.6195  -3.6065  -3.5963  -3.5503  -3.5369  -3.5213  -3.4959  -3.4648
    -3.4546  -3.4400  -3.4250  -3.4103  -3.3893  -3.3709  -3.3630  -3.3522
    -3.3339  -3.2973  -3.2752  -3.2628  -3.2364  -3.2257  -3.2017  -3.1844
    -3.1539  -3.0755  -3.0635  -3.0457  -2.9883  -2.9748  -2.9607  -2.9492
    -2.9333  -2.8880  -2.8635  -2.8430  -2.7973  -2.7487  -2.6855  -2.6460
    -2.6239  -2.6169  -2.5661  -2.5357  -2.4941  -2.4789  -2.3770  -2.3400
    -2.2962  -2.2783  -2.2639  -2.2448  -2.2294  -2.1954  -2.1682  -2.1440
    -1.9444  -1.9400  -1.8933  -1.8842  -1.7049  -1.7018  -1.6196  -1.6159
    -1.5264  -1.5145  -1.4673  -1.4426  -1.3972  -1.3788  -1.3260  -1.3027
    -1.2888  -1.2635  -1.1180  -1.0686  -1.0153  -1.0022  -0.9481  -0.9098
    -0.8746  -0.8357  -0.8048  -0.7809  -0.7516  -0.7057  -0.6929  -0.6506
    -0.6431  -0.6065  -0.5657  -0.5430  -0.5005  -0.4952  -0.4818  -0.4333
    -0.4175  -0.3755  -0.3559  -0.3145  -0.1519  -0.1473  -0.1375  -0.1101
    -0.0632  -0.0021   0.0449   0.0621   0.0771   0.1003   0.1072   0.1397
     0.1486   0.1762   0.2315   0.2703   0.2995   0.3175   0.3855   0.4150
     0.4780   0.5187   0.5752   0.6075   0.7522   0.7835   0.9005   0.9344
     1.1266   1.1892   1.3834   1.4053   1.7592   1.8314   1.9409   1.9742

     occupation numbers 
     1.0000   1.0000   1.0000   1.0000   1.0000   1.0000   1.0000   1.0000
     1.0000   1.0000   1.0000   1.0000   1.0000   1.0000   1.0000   1.0000
     1.0000   1.0000   1.0000   1.0000   1.0000   1.0000   1.0000   1.0000
     1.0000   1.0000   1.0000   1.0000   1.0000   1.0000   1.0000   1.0000
     1.0000   1.0000   1.0000   1.0000   1.0000   1.0000   1.0000   1.0000
     1.0000   1.0000   1.0000   1.0000   1.0000   1.0000   1.0000   1.0000
     1.0000   1.0000   1.0000   1.0000   1.0000   1.0000   1.0000   1.0000
     1.0000   1.0000   1.0000   1.0000   1.0000   1.0000   1.0000   1.0000
     1.0000   1.0000   1.0000   1.0000   1.0000   1.0000   1.0000   1.0000
     1.0000   1.0000   1.0000   1.0000   1.0000   1.0000   1.0000   1.0000
     1.0000   1.0000   1.0000   1.0000   1.0000   1.0000   1.0000   1.0000
     1.0000   1.0000   1.0000   1.0000   1.0000   1.0000   1.0000   1.0000
     1.0000   1.0000   1.0000   1.0000   1.0000   1.0000   1.0000   1.0000
     1.0000   1.0000   1.0000   1.0000   1.0000   1.0000   1.0000   1.0000
     1.0000   1.0000   1.0000   1.0000   1.0000   1.0000   1.0000   1.0000
     1.0000   1.0000   1.0000   1.0000   1.0000   1.0000   1.0000   1.0000
     1.0000   1.0000   1.0000   1.0000   1.0000   1.0000   1.0000   1.0000
     1.0000   1.0000   1.0000   1.0000   1.0000   1.0000   1.0000   1.0000
     1.0000   1.0000   1.0000   1.0000   1.0000   1.0000   1.0000   1.0000
     1.0000   1.0000   1.0000   1.0000   1.0000   1.0000   1.0000   1.0000
     1.0000   1.0000   1.0000   1.0000   1.0000   1.0000   1.0000   1.0000
     1.0000   1.0000   1.0000   1.0000   1.0000   1.0000   1.0000   1.0000
     1.0000   1.0000   1.0000   1.0000   1.0000   1.0000   1.0000   1.0000
     1.0000   1.0000   1.0000   1.0000   1.0000   1.0000   1.0000   1.0000
     1.0000   1.0000   1.0000   1.0000   1.0000   1.0000   1.0000   1.0000
     1.0000   1.0000   1.0000   1.0000   1.0000   1.0000   1.0000   1.0000
     1.0000   1.0000   1.0000   1.0000   1.0000   1.0000   1.0000   1.0000
     1.0000   1.0000   1.0000   1.0000   1.0000   1.0000   1.0000   1.0000
     1.0000   1.0000   1.0000   1.0000   1.0000   1.0000   1.0000   1.0000
     1.0000   1.0000   1.0000   1.0000   1.0000   1.0000   1.0000   1.0000
     1.0000   1.0000   1.0000   1.0000   1.0000   1.0000   1.0000   1.0000
     1.0000   1.0000   1.0000   1.0000   1.0000   1.0000   1.0000   1.0000
     1.0000   1.0000   1.0000   1.0000   1.0000   1.0000   1.0000   1.0000
     1.0000   1.0000   1.0000   1.0000   1.0000   1.0000   1.0000   1.0000
     1.0000   1.0000   1.0000   1.0000   1.0000   1.0000   1.0000   1.0000
     1.0000   1.0000   1.0000   1.0000   1.0000   1.0000   1.0000   1.0000
     1.0000   1.0000   1.0000   1.0000   1.0000   1.0000   1.0000   1.0000
     1.0000   1.0000   1.0000   1.0000   1.0000   1.0000   1.0000   1.0000
     1.0000   1.0000   1.0000   1.0000   1.0000   1.0000   1.0000   1.0000
     1.0000   1.0000   1.0000   1.0000   1.0000   1.0000   1.0000   1.0000
     1.0000   1.0000   1.0000   1.0000   1.0000   1.0000   1.0000   1.0000
     1.0000   1.0000   1.0000   1.0000   1.0000   1.0000   1.0000   1.0000
     1.0000   1.0000   1.0000   1.0000   1.0000   1.0000   1.0000   1.0000
     1.0000   1.0000   1.0000   1.0000   1.0000   1.0000   1.0000   1.0000
     1.0000   1.0000   1.0000   1.0000   1.0000   1.0000   1.0000   1.0000
     1.0000   1.0000   1.0000   1.0000   1.0000   1.0000   1.0000   1.0000
     1.0000   1.0000   1.0000   1.0000   1.0000   1.0000   1.0000   1.0000
     1.0000   1.0000   1.0000   1.0000   1.0000   1.0000   1.0000   1.0000
     1.0000   1.0000   1.0000   1.0000   1.0000   1.0000   1.0000   1.0000
     1.0000   1.0000   1.0000   1.0000   1.0000   1.0000   1.0000   1.0000

     highest occupied level (ev):     2.0421

!    total energy              =   -2715.88886698 Ry
     estimated scf accuracy    <       0.00000027 Ry

     The total energy is the sum of the following terms:
     one-electron contribution =   -2492.26801405 Ry
     hartree contribution      =    1529.84198577 Ry
     xc contribution           =    -869.68600612 Ry
     ewald contribution        =    -836.64086678 Ry

     convergence has been achieved in  25 iterations

     Writing all to output data dir ./tmp/BPDA.save/ :
     XML data file, charge density, pseudopotentials, collected wavefunctions

     init_run     :     58.85s CPU     65.28s WALL (       1 calls)
     electrons    :  42796.95s CPU  45105.80s WALL (       1 calls)

     Called by init_run:
     wfcinit      :     58.19s CPU     64.41s WALL (       1 calls)
     wfcinit:atom :      0.28s CPU      0.51s WALL (      18 calls)
     wfcinit:wfcr :     54.74s CPU     59.32s WALL (      18 calls)
     potinit      :      0.02s CPU      0.03s WALL (       1 calls)
     hinit0       :      0.37s CPU      0.38s WALL (       1 calls)

     Called by electrons:
     c_bands      :  30508.33s CPU  31021.45s WALL (      75 calls)
     sum_band     :    107.30s CPU    127.16s WALL (      25 calls)
     v_of_rho     :      0.54s CPU      0.71s WALL (      26 calls)
     v_h          :      0.04s CPU      0.07s WALL (      26 calls)
     v_xc         :      0.50s CPU      0.64s WALL (      26 calls)
     mix_rho      :      0.24s CPU      0.28s WALL (      25 calls)

     Called by c_bands:
     init_us_2    :    138.39s CPU    138.70s WALL (    1818 calls)
     cegterg      :  30188.49s CPU  30700.02s WALL (    1350 calls)

     Called by sum_band:
     sum_band:wei :      0.00s CPU      0.00s WALL (      25 calls)
     sum_band:loo :    107.25s CPU    127.07s WALL (      25 calls)
     sum_band:buf :      5.71s CPU      5.92s WALL (     450 calls)
     sum_band:ini :     34.77s CPU     34.81s WALL (     450 calls)

     Called by *egterg:
     cdiaghg      :   1391.72s CPU   1434.38s WALL (    8569 calls)
     cegterg:over :    540.39s CPU    551.77s WALL (    7255 calls)
     cegterg:upda :    395.10s CPU    401.78s WALL (    7255 calls)
     cegterg:last :    527.42s CPU    536.55s WALL (    2170 calls)
     cdiaghg:chol :     45.08s CPU     45.23s WALL (    8569 calls)
     cdiaghg:inve :     11.62s CPU     11.65s WALL (    8569 calls)
     cdiaghg:para :    133.32s CPU    151.14s WALL (   17138 calls)
     h_psi        :  27174.88s CPU  27551.09s WALL (    8623 calls)
     g_psi        :     12.52s CPU     12.58s WALL (    7255 calls)

     Called by h_psi:
     h_psi:calbec :   1413.95s CPU   1460.78s WALL (    8623 calls)
     vloc_psi     :    901.41s CPU   1164.36s WALL (    8623 calls)
     add_vuspsi   :   1314.76s CPU   1322.17s WALL (    8623 calls)

     General routines
     calbec       :   1413.90s CPU   1460.75s WALL (    8623 calls)
     fft          :      0.58s CPU      0.73s WALL (     260 calls)
     ffts         :      0.02s CPU      0.04s WALL (      25 calls)
     fftw         :    897.65s CPU   1160.16s WALL ( 2538672 calls)

     Parallel routines

     Electric-field routines
     h_epsi_set   :   8062.40s CPU   8257.33s WALL (      75 calls)
     h_epsi_apply :  23534.49s CPU  23563.85s WALL (    8605 calls)
     c_phase_fiel :   4117.99s CPU   5697.96s WALL (      75 calls)

     PWSCF        :     11h54m CPU     12h33m WALL


   This run was terminated on:   8:41:46  28Oct2024            

=------------------------------------------------------------------------------=
   JOB DONE.
=------------------------------------------------------------------------------=
