LAMMPS data file via write_data, version 29 Oct 2020, timestep = 300005

384 atoms
4 atom types

2.0019765594683028 22.21002544052948 xlo xhi
-0.5799475634559847 10.249947563456374 ylo yhi
0.29286417846234214 17.509136821539133 zlo zhi

Masses

1 12.0107
2 1.00794
3 15.9994
4 32.064999

Atoms # charge/kk

69 2 1.6672353140217239e-01 6.3910169316871528e+00 3.7570390872332942e+00 4.3891255397627535e+00 0 0 0
170 1 -1.0445111035738155e-01 6.2760413530201165e+00 1.4903228808140385e+00 1.3346935841335534e+00 0 0 0
226 2 1.5580459048893811e-01 7.8330123505272446e+00 8.8260552974264641e+00 5.2592685666627381e-01 0 -1 1
49 3 -5.4217959474367960e-01 4.5186727332383176e+00 3.8389026456222792e+00 2.4224015212146637e+00 0 0 0
164 1 -1.2615687157926125e-01 8.7043268460823189e+00 1.7639601129409817e+00 5.4492396675465429e+00 0 0 0
58 1 1.9090018293891586e-01 3.2019886724169822e+00 3.9034831485088937e+00 1.7722808565192403e+00 0 0 0
59 1 -1.3126261993514651e-01 3.3958158171167296e+00 2.3124137607871913e+00 4.1073968652648034e+00 0 0 0
60 1 -1.7050327263082962e-01 5.5899272420535757e+00 3.1121926928138750e+00 4.5842514478231955e+00 0 0 0
61 1 2.0268269140457951e-01 4.4747366889665798e+00 3.1454686301247210e+00 3.7039841095597970e+00 0 0 0
30 1 -8.9247026554422890e-02 8.6666392340130098e+00 -1.8676692540643877e-01 6.8380264203707002e+00 0 0 0
48 3 -4.1977788714760750e-01 5.9646488753171640e+00 3.8516044927608606e-01 8.3131734045635959e+00 0 0 0
154 2 1.7545762601167117e-01 2.0790482201790570e+00 1.9382675801587133e+00 4.5154452163983566e-01 1 0 1
46 4 2.7514345889640202e-01 4.5765382773594103e+00 7.4040444144367745e-01 7.9217005934930933e+00 0 0 0
162 1 -3.6902378041343345e-02 8.0321816445178484e+00 1.7180775760839689e-01 2.4028457089186510e+00 0 0 0
145 1 -9.7887981838672644e-02 6.6813231860486200e+00 5.6866623257820881e-01 2.3382856044254168e+00 0 0 0
51 1 -4.0169365195171690e-02 4.5546378833491890e+00 1.5939697911518347e+00 6.1497933258623627e+00 0 0 0
68 2 2.0455818681478280e-01 2.4866220853499628e+00 2.2105269334527939e+00 3.5141029711148866e+00 0 0 0
65 2 1.7983096101839965e-01 6.4538387364083576e+00 2.5186107389821242e+00 6.4830076194208095e+00 0 0 0
55 1 -9.8110999706749982e-02 5.6569655311545892e+00 2.3698914698956663e+00 5.7850599168598027e+00 0 0 0
54 1 -8.9508052087979698e-02 3.4251159257739840e+00 1.5670797085218950e+00 5.3147563341028796e+00 0 0 0
63 2 2.0035322224550733e-01 3.1745996551598439e+00 3.2718446617719530e+00 7.0496049495402326e+00 0 0 0
75 2 1.5867862953082082e-01 7.8125919394763219e+00 6.3591102764053824e+00 6.1925485129418800e-01 0 0 1
56 1 -1.5603591476171710e-01 3.0664157798263028e+00 3.8479036544907297e+00 3.9296229795791449e-01 0 0 0
95 1 -9.8037061288308192e-02 8.5997956458667009e+00 4.1437714646608059e+00 2.2498954791097820e+00 0 0 0
47 3 -3.9470310229678118e-01 3.7437576140535240e+00 -4.4885475003665365e-01 7.9803137103957260e+00 0 0 0
106 1 -5.5112293461209369e-02 5.7476533023047702e+00 8.7775262134243590e+00 6.1251646954652061e+00 0 0 0
179 2 1.7949766034643105e-01 5.2908362605260688e+00 1.9698306977898661e+00 1.3644052342597486e+00 0 0 0
251 1 -1.0604456728495781e-01 7.5613057870701423e+00 5.7512539013102888e+00 3.7646559967190116e+00 0 0 0
383 2 1.7254742149472074e-01 6.5133546910096527e+00 4.6503249167114920e+00 2.2266491391247087e+00 0 0 0
147 2 1.8321361187616220e-01 5.9869403198480340e+00 2.5525622180944635e-01 3.0821342215938610e+00 0 0 0
99 3 -3.9959773880074573e-01 5.2309275249675027e+00 5.4214578878317035e+00 8.3535086566786454e+00 0 0 0
103 1 1.8664644105385697e-03 5.5150697213878184e+00 7.4100366590980906e+00 6.2896878551783182e+00 0 0 0
253 1 -1.3042491861737301e-01 7.4669412115737979e+00 4.8502106907062412e+00 2.6840156251611655e+00 0 0 0
371 2 1.6976188997081254e-01 2.4685424512920329e+00 7.3894725290103018e+00 4.4955326876997720e-01 1 0 1
41 1 -8.0683722955200959e-02 8.5947134225705639e+00 1.4365224304639983e+00 3.6273131122025176e-01 0 0 0
116 2 1.9938813410624034e-01 6.3070421611354517e+00 9.2642982514648757e+00 6.8694934567159054e+00 0 0 0
112 1 -1.5959608316607921e-01 4.3670886086425851e+00 7.4442744114588679e+00 4.1369990541803929e+00 0 0 0
29 3 -4.1175542701129897e-01 7.8198311507624432e+00 8.7147893486115144e+00 4.1225229184790741e+00 0 -1 0
64 2 1.9972156701148744e-01 2.5804748385916279e+00 9.9213752321599535e-01 5.5930111432531078e+00 0 0 0
121 2 1.8010336912175073e-01 3.7485906134884228e+00 6.9442942552061853e+00 3.4473972778217399e+00 0 0 0
118 2 1.5724946028803685e-01 5.3041216087047669e+00 6.9680191940840190e+00 2.2156393572423418e+00 0 0 0
257 2 1.7551899401188506e-01 6.7708433729557420e+00 6.4096110023445609e+00 4.0110309354688942e+00 0 0 0
107 1 -8.5491385230936801e-02 4.7686713414933051e+00 6.7367149779575195e+00 5.3089836716472005e+00 0 0 0
120 2 1.7899217567310582e-01 5.3754777183959934e+00 -2.6873552939911033e-01 4.9136217873750905e+00 0 1 0
117 2 1.8374165471989104e-01 4.5470702364470723e+00 5.7103082470684727e+00 5.4543790942125252e+00 0 0 0
101 3 -4.8025328633258629e-01 4.3192969603162110e+00 9.5500022038795755e+00 2.6768472435392794e+00 0 0 0
110 1 1.9436175496004926e-01 4.3004494756362934e+00 8.7372335591066079e+00 1.4505990901170043e+00 0 0 0
113 1 2.2358812892853575e-01 4.6395636916278109e+00 8.8115818811773998e+00 3.9162606430916851e+00 0 0 0
111 1 -1.1095116926513461e-01 5.2672379791342223e+00 9.4874551840115924e+00 4.9870654697213421e+00 0 0 0
108 1 -1.7855864729480520e-01 4.8467955048730760e+00 7.4233451332424636e+00 1.3507476085268464e+00 0 0 0
98 4 2.8073386502045172e-01 6.1930802111148990e+00 6.4215323517574232e+00 7.8673193888147885e+00 0 0 0
100 3 -4.2218519412830513e-01 7.4211062853756715e+00 5.7565019574548195e+00 7.4488641025521138e+00 0 0 0
53 1 -8.0093861525488183e-02 3.0659048223348724e+00 3.2987808935551111e+00 8.1153819053526544e+00 0 0 0
172 1 -9.7949515177651922e-02 7.2546018999570014e+00 1.8747166647034312e+00 3.7804967012098512e-01 0 0 0
97 2 1.7172729969088626e-01 8.5459423938474259e+00 3.4295932360834356e+00 1.4636396423478999e+00 0 0 0
57 1 -1.0453000014304199e-01 2.5952062907967117e+00 4.4645711717913592e+00 8.7800638328958289e+00 0 0 0
161 1 -2.9914192097495636e-02 8.5907006566651454e+00 3.6982109411264835e-01 5.5513164782576689e+00 0 0 0
31 2 1.6020525431550803e-01 8.6062702335993375e+00 9.5831905688371215e+00 6.9148182999129784e+00 0 -1 0
174 2 1.4888628798196463e-01 8.7314013845611580e+00 2.2130598253636826e+00 4.4844283743335538e+00 0 0 0
141 4 2.6785351336383073e-01 8.6690026064842520e+00 9.8902298641447377e+00 3.9493264521421478e+00 0 -1 0
67 2 2.1248505781196780e-01 2.4937843440685499e+00 5.3509962455581190e+00 8.2367669098152998e+00 0 0 0
7 2 2.1757086301588760e-01 2.0645570619807003e+00 4.3552170063459013e+00 3.5084873293254799e+00 0 0 0
50 1 -2.8314223459731766e-02 3.6769717521004250e+00 2.3062367594949325e+00 8.8987330356923504e+00 0 0 0
119 2 1.8955217623730680e-01 8.7030085417805179e+00 9.8333984923161157e+00 1.0709497145019933e+01 0 0 0
83 1 -1.5842262065357715e-01 3.0113774149138304e+00 3.4956554277821810e+00 1.0970614224601089e+01 0 0 0
35 2 1.9342418149181909e-01 8.4525813663539484e+00 3.8433530863996174e-01 1.3507096619356110e+01 0 0 0
139 2 1.9149707169675129e-01 6.9228195399884029e+00 2.3247842330524899e+00 1.3857136292363357e+01 0 1 0
373 2 1.6245272426596913e-01 6.6889443181297663e+00 5.6205802152594364e+00 1.1023923456596460e+01 0 1 0
317 4 2.8390875577406205e-01 2.8468272368346024e+00 1.2890878979419684e+00 1.4733384411172294e+01 1 0 0
81 1 -1.2354572629339995e-01 4.9087374630659024e+00 6.6876157122646882e+00 1.3096134431260161e+01 0 0 0
85 1 -1.6277793912036345e-01 4.1109965966377802e+00 6.0105509750081776e+00 1.2129939395472739e+01 0 0 0
88 2 1.3690623478848948e-01 5.7524135311473588e+00 6.2129302221890894e+00 1.3433724900312638e+01 0 0 0
320 2 1.5183999563337794e-01 2.2124873807064063e+00 3.4443524995371183e-01 1.1826819297590811e+01 1 0 0
52 1 -9.4850308064264671e-02 3.7332281376646819e+00 2.4803797859734540e+00 1.0291514544735525e+01 0 0 0
216 1 -9.9820014173210445e-02 7.9434474226153764e+00 9.1811219396262675e+00 1.6749923110307414e+01 0 -1 0
128 1 -1.2818001140055482e-01 6.6554479228741297e+00 4.5910575544731005e+00 1.1257548115383152e+01 0 1 0
129 1 -1.0775766949204182e-01 6.6654448039010950e+00 4.0315725156542550e+00 1.2569999977985050e+01 0 1 0
130 1 -5.8571103726484358e-02 6.6431531786790936e+00 3.6549844407408996e+00 1.0210550638483854e+01 0 1 0
133 1 -1.3116082944276947e-01 6.7534337394291724e+00 2.6476186115868905e+00 1.2841817200185904e+01 0 1 0
134 1 -1.6395893532111580e-01 6.6311115155245934e+00 2.2673358461023208e+00 1.0502884844117828e+01 0 1 0
136 2 1.6581312351818780e-01 6.6664354164889339e+00 4.6689504348163355e+00 1.3408857036106347e+01 0 1 0
102 1 -2.6573442213986827e-02 6.4585104614690296e+00 7.8956013140112402e+00 9.1765027167916760e+00 0 0 0
62 2 1.6457002085033084e-01 4.2799294146679445e+00 1.7418194496587143e+00 1.0811688351437214e+01 0 0 0
70 3 -4.5032105141970563e-01 7.3741763593659941e+00 4.5601596869110592e+00 1.5825983646074722e+01 0 0 0
90 2 1.7246637586563515e-01 2.9023383560618030e+00 3.4251417368891408e+00 1.2041206353368832e+01 0 0 0
378 2 1.4800299681092499e-01 4.1353155054007349e+00 6.6731379516999709e+00 1.5357873354708016e+01 0 0 -1
36 2 2.1091656096488159e-01 6.1808446449202865e+00 8.8378535846737868e-02 1.4371902793691889e+01 0 0 0
125 2 1.5359834286820051e-01 8.0994765716606896e+00 7.3482638511263936e+00 1.4580074121867584e+01 0 0 0
318 3 -4.1795933428549931e-01 3.4731780865171897e+00 2.5197944834233486e+00 1.5203820410443560e+01 1 0 0
150 3 -4.4790283927680863e-01 3.8794227470320291e+00 3.1997634000262454e-01 1.4316249880032704e+01 1 0 0
66 2 1.9410830842775395e-01 3.9160461912528954e+00 3.7169504840843217e+00 1.7003022618932626e+01 0 0 -1
10 1 -1.2619480774893366e-01 3.7289284568907588e+00 8.5715967180523833e+00 1.6254848648035157e+01 0 0 -1
89 2 1.7506539559925691e-01 3.2261171395459747e+00 9.5449526056723446e+00 1.3195981771203037e+01 0 0 0
122 1 -1.1809569913430853e-01 8.7223193679917621e+00 7.0472354260709986e+00 1.3770298569937800e+01 0 0 0
82 1 -1.0829632258455799e-01 3.5058237533731171e+00 8.5750854470367504e+00 1.2900603751228353e+01 0 0 0
91 2 1.7542211713782283e-01 4.4260412869566705e+00 5.0679116852386352e+00 1.1765834143578491e+01 0 0 0
131 1 -1.2105590101546823e-01 5.4219926816929105e+00 9.6583586931939376e+00 1.0664550505890858e+01 0 0 0
80 1 -1.2224745458707399e-01 4.6494956581020057e+00 8.0021315396103816e+00 1.3500709077092283e+01 0 0 0
104 1 -5.7951719463609934e-02 5.3649947627919810e+00 8.5288645004865291e+00 9.8084015635573056e+00 0 0 0
87 1 2.2016560602472521e-01 2.9112051962139582e+00 6.5265501472227880e+00 1.1638005332388939e+01 0 0 0
127 3 -5.1775004355322962e-01 6.8733516649805555e+00 3.0264183029724318e-01 1.2180767530990094e+01 0 1 0
140 2 2.1358551709901116e-01 6.5640574177890718e+00 1.6143612247088890e+00 9.6773859883865878e+00 0 1 0
114 2 1.8843575786481070e-01 4.3830517016669832e+00 8.1669592814822423e+00 9.6000453884721217e+00 0 0 0
73 1 -9.1620536636821195e-02 6.9972547829120284e+00 -4.6262519455068302e-01 1.4809051157227001e+01 0 0 0
135 1 2.1658176853426342e-01 6.7163457202153145e+00 1.6910733985524771e+00 1.1785478519742021e+01 0 1 0
86 1 -1.5744633549557593e-01 2.6557979763778650e+00 7.8580880550520078e+00 1.2019933936318523e+01 0 0 0
138 2 1.6847975240766427e-01 4.5039845413896389e+00 1.0171978571477055e+01 1.0931622609043501e+01 0 0 0
217 1 -1.1319231478435471e-01 6.8563288098703525e+00 9.6572791642962503e+00 1.6027489675718424e+01 0 -1 0
132 1 2.0493508410323061e-01 6.6913977405130902e+00 1.0120112690331998e+01 1.1101937681803593e+01 0 0 0
84 1 1.9696576807851846e-01 2.4607158999213703e+00 4.5518197347889355e+00 1.0198640694192868e+01 0 0 0
374 2 1.4924236797624982e-01 5.3553583109164533e+00 8.4979382917107813e+00 1.4103574060938318e+01 0 0 0
105 1 -9.9732609022107274e-02 7.7181513161320572e+00 8.4344402184765190e+00 9.4597838759251012e+00 0 0 0
109 1 -1.4906365636887378e-01 7.7573663947131370e+00 9.4577985433258274e+00 1.0452190029984889e+01 0 0 0
8 1 -1.4010676770141012e-01 4.2043498214538504e+00 7.2321983235370766e+00 1.6244936096707679e+01 0 0 -1
12 2 1.5888404106779347e-01 5.2108048968171081e+00 5.6683434822708625e+00 1.7354255755820034e+01 0 0 -1
13 2 1.6605215181783281e-01 3.3790233678559098e+00 9.0548233085790351e+00 1.5368396750528300e+01 0 0 -1
34 1 -1.0245783011204905e-01 8.3094528150993607e+00 -1.9986809190860380e-01 1.4378553414168104e+01 0 0 0
208 2 1.6512916908956751e-01 5.8928754836019603e+00 9.4912847091523194e+00 1.6360622831796025e+01 0 -1 0
384 2 1.9550013066631342e-01 6.9135225122189681e+00 2.5427432322255847e+00 1.6862902834269590e+01 0 0 -1
137 2 2.1215490909969661e-01 6.5913713732044199e+00 3.9591353249213252e+00 9.2012402040880037e+00 0 1 0
11 1 -1.5327578676721421e-01 3.7776793976756831e+00 9.2878429761899195e+00 1.7458307861255228e+01 0 0 -1
9 1 -1.1400692010036603e-01 4.7779802834883540e+00 6.6328605764014528e+00 1.7378113812973332e+01 0 0 -1
14 2 1.8547880644023354e-01 3.4974309318755425e+00 -5.3215946849249229e-01 1.7495974104645281e+01 0 1 -1
126 2 1.7577309027437804e-01 8.6220920358259736e+00 8.9520443794837909e+00 1.2755338313469185e+01 0 0 0
115 2 1.7414519861195182e-01 8.5948071346380122e+00 8.0920373920510134e+00 8.9741315542375037e+00 0 0 0
204 2 1.6937962622628167e-01 1.0438763571307961e+01 1.0613041242640766e+00 3.7189327955517881e+00 0 0 0
186 1 -9.0775550258252510e-03 1.3396512892515316e+01 8.6287631661007280e-01 5.3683541704729034e+00 0 0 0
201 2 1.9072491194847066e-01 1.3393741411459695e+01 4.5387357085547526e+00 2.5699900563394826e+00 0 0 0
16 1 -1.2831436025396903e-01 1.4652254072465624e+01 4.9946034690696148e+00 8.8857985662025929e-01 0 0 0
193 1 2.0199357154938330e-01 1.2716100622225614e+01 3.3968972889804134e+00 9.5716688318542065e-01 0 0 0
77 2 2.0294497520353089e-01 8.9932716199478762e+00 7.5625937458223751e+00 2.4066496910758639e+00 0 0 1
24 1 -1.0382198718564779e-01 1.4131294072523922e+01 9.3384023159857854e+00 3.1322259360313975e-01 0 0 0
37 3 -4.1549641570955892e-01 1.2167764029503376e+01 3.7913131856736069e+00 5.8163824885507216e+00 0 0 0
184 3 -5.1767845932716483e-01 1.1764575852907861e+01 2.5502382420925245e+00 1.7552394249492920e+00 0 0 0
200 2 1.6677063477790555e-01 1.1419245961034575e+01 4.0924726292639726e-02 5.6306826714908524e+00 0 0 0
181 4 2.7985127990682002e-01 1.4132841014926397e+01 6.9497025546080449e-02 7.0265019972234137e+00 0 0 0
269 1 -1.6723120637592456e-01 1.4015429763099666e+01 9.2453918581474657e+00 3.1146744850288162e+00 0 0 0
43 2 1.6859604217628926e-01 9.9833398103300688e+00 4.1392336180283851e-01 1.7020455992976704e+00 0 0 0
194 1 -1.5997348121991073e-01 1.3668248965820762e+01 2.1274314444776898e+00 3.3139625578939254e+00 0 0 0
23 1 -1.0058439259904203e-01 1.2924650857391690e+01 9.8044609664878379e+00 2.3710713211900787e+00 0 0 0
190 1 -9.5504373358380357e-02 1.2040394159853594e+01 6.6946587752719300e-01 5.0551319455803778e+00 0 0 0
203 2 1.5680480779759834e-01 1.4287414736439292e+01 2.6236115485299099e+00 2.6115060422455656e+00 0 0 0
42 2 1.9287441035206396e-01 1.0065363281556721e+01 4.5870551414555685e+00 8.0119351058744925e+00 0 0 0
196 1 2.1706075872118002e-01 1.2290835762421995e+01 2.0241661214125610e+00 3.0283374525355082e+00 0 0 0
256 2 1.7742392267622789e-01 1.1850761416950684e+01 9.1924744047980447e+00 8.4436659723260501e+00 0 0 0
198 2 2.3106851436758449e-01 1.2569467391812120e+01 2.9269825505975695e+00 7.2751811570665623e+00 0 0 0
93 1 -8.9951492559424362e-02 9.8230628011105079e+00 4.2907725114921051e+00 2.9539987529590519e+00 0 0 0
195 1 -1.5082004922286854e-01 1.1476242649309778e+01 1.2497027225607311e+00 3.8975883705695225e+00 0 0 0
26 2 1.8185288044134734e-01 1.2062572080436921e+01 1.0199219875182491e+01 2.8305025777631512e+00 0 0 0
189 1 -9.4069042755782054e-02 1.4231381738006938e+01 1.5998245403056337e+00 4.5171509586808982e+00 0 0 0
96 2 2.1806128213921122e-01 1.0708180666138350e+01 3.7954559459604038e+00 2.5873500470661130e+00 0 0 0
377 2 1.7394854574656146e-01 1.2211298720889426e+01 -5.7030191151044729e-01 3.4121429070303860e-01 0 1 0
268 1 -4.3830481715179496e-02 1.4708140779408236e+01 6.9230516586558313e+00 6.4419144461653195e+00 0 0 0
249 1 -1.4710026457173575e-01 1.1441673194677570e+01 8.2385735669435327e+00 8.2765449338982506e+00 0 0 0
182 3 -4.0923137462970038e-01 1.3771922218390380e+01 9.4757307745581532e+00 7.1830101919798555e+00 0 -1 0
289 1 -1.0380724988961093e-01 1.1749648139264051e+01 6.7336729590758262e+00 5.4998339342884639e-01 0 0 1
185 1 -2.4890074419956467e-02 1.3471799283657806e+01 1.3025207570427211e+00 8.4676304337457857e+00 0 0 0
279 2 1.8049626224365042e-01 1.4035553345529481e+01 9.2620161495201838e+00 4.1648554924567502e+00 0 0 0
38 1 -9.1042940314506576e-02 1.0443601519534717e+01 5.6218203044474766e+00 8.0067708347801929e+00 0 0 0
123 1 -8.8687690727548216e-02 9.5514022939068131e+00 7.2292392064635465e+00 1.5778002106826927e+00 0 0 1
381 2 1.6206447505241567e-01 1.5335319711435442e+01 4.0361164445011335e+00 4.4478431250184673e+00 0 0 0
273 1 -1.5104704555937035e-01 1.4964163627596490e+01 7.3620566501244644e+00 5.1449689842750290e+00 0 0 0
271 1 1.8048035191998468e-01 1.5221023261774510e+01 8.7813384617832906e+00 2.5388848586950452e+00 0 0 0
188 1 -7.8214910246186695e-02 1.2848500477985359e+01 2.5506508713733873e+00 8.2619371559318697e+00 0 0 0
22 1 -1.1332235686174705e-01 1.2968564075090093e+01 9.8058376413309620e+00 9.5874433194792597e-01 0 0 0
157 4 2.8259053666165623e-01 1.1652504991759011e+01 5.0772219829149066e+00 5.2935058119684752e+00 0 0 0
191 1 -1.8494446357336108e-01 1.3589102671359298e+01 4.3340090836437257e+00 1.5585506185948523e+00 0 0 0
245 1 -2.7687196760811529e-02 9.8805395062483150e+00 4.9830880540624101e+00 4.1699260747788509e+00 0 0 0
244 1 -1.7434531408827302e-02 1.1198308683701933e+01 6.1797066237537139e+00 6.9526832114193535e+00 0 0 0
143 3 -4.5413257507030730e-01 1.0026312621168058e+01 9.4232491956642068e+00 3.6545339553912806e+00 0 -1 0
254 2 1.8650742513130392e-01 1.2096820029816069e+01 8.0086744553315494e+00 6.2340257068747507e+00 0 0 0
159 3 -4.3178267524376107e-01 1.2732875838649804e+01 5.6903973458356063e+00 4.5143279685166986e+00 0 0 0
290 1 -8.9992668185295346e-02 1.0954640919632695e+01 7.4197272160756826e+00 1.5160838465731190e+00 0 0 1
246 1 -7.9480523754832680e-02 1.1600227814888306e+01 7.5224785897448632e+00 7.0578026613096156e+00 0 0 0
283 2 1.8597162169482703e-01 1.1373079091930697e+01 7.9489729154044717e+00 2.3490647013514039e+00 0 0 1
165 1 -8.6005075908560949e-02 8.7430896481483114e+00 5.7015383002866544e+00 4.5584467295431352e+00 0 0 0
282 2 1.9762582869423587e-01 1.4205390021292880e+01 7.2309220254312230e+00 4.4444394045475519e+00 0 0 0
278 2 2.1207457938892957e-01 1.3822740063774249e+01 6.3974657300169389e+00 6.6535449717793496e+00 0 0 0
296 2 1.5621081764554995e-01 1.2826534749563164e+01 6.8078388054756145e+00 4.9585547456885787e-01 0 0 1
199 2 1.6470359966513834e-01 1.5243821103061196e+01 1.7400561866548634e+00 4.7756624458274786e+00 0 0 0
19 2 1.4410697141207590e-01 1.5326773005307947e+01 5.6027598476551193e+00 1.4378059176678655e+00 0 0 0
25 1 -1.6860162489520653e-01 1.5197852762621709e+01 8.8624716458805342e+00 1.1198870752995902e+00 0 0 0
169 1 2.0675689033389097e-01 9.0575220891341726e+00 1.9663025055184291e+00 7.9726286426649260e+00 0 0 0
40 1 -1.5611196562588858e-01 8.8153281533622501e+00 5.8133275154267683e-01 8.0373976984231419e+00 0 0 0
175 2 1.9351345006974766e-01 8.7866883431125355e+00 6.2682888911993961e+00 5.4626692769270315e+00 0 0 0
168 1 -1.4586042041140670e-01 8.8787575062750701e+00 2.5013771956972901e+00 6.6768880440681206e+00 0 0 0
71 1 -1.2148802648811416e-01 8.8452307513000505e+00 6.4897028997855601e+00 6.1003477112433468e-01 0 0 1
335 2 1.6482748417377061e-01 1.5264123794364087e+01 5.1738272451766854e-01 1.9360387836700175e+00 0 0 0
39 1 -1.1678860434224619e-01 8.9831867216988144e+00 6.4126265013669714e-01 1.4729469923713927e+00 0 0 0
178 2 1.7676898785765985e-01 9.1635223263882004e+00 3.4969138896733258e+00 6.5227201396664665e+00 0 0 0
382 2 1.5484272592984683e-01 1.5463429592719189e+01 2.8241502504473890e+00 1.1172204588367327e+00 0 0 0
237 1 2.1339062155827682e-01 1.3604260785940960e+01 4.7807642471637442e+00 1.2422510798342399e+01 0 0 0
284 1 1.1096067737179944e-03 9.6536844380829478e+00 5.8102425829906492e+00 1.6908945282032047e+01 0 0 0
299 3 -4.7223866204664960e-01 1.5119238683201026e+01 6.9279792985856381e-01 1.2992835069344506e+01 0 1 0
210 1 -9.6610625865624668e-03 1.0812675243287375e+01 7.2041963052514302e-01 1.2701443594520049e+01 0 0 0
153 1 -9.3532313517434865e-02 1.1151251476160372e+01 1.6578365647787571e-01 1.1459509939732623e+01 0 0 0
235 1 -1.1691776478017901e-01 1.4932024888882271e+01 4.6346093623710640e+00 1.1990304867814709e+01 0 0 0
151 3 -3.9309157166251552e-01 1.2008876083180708e+01 7.0607234527135110e-01 1.5259439609823511e+01 0 0 0
72 1 -1.0092735536689371e-01 1.0030023976481736e+01 1.8780007166208692e+00 1.2772403626233846e+01 0 0 0
233 1 -1.2635404118508461e-01 1.3452947483525524e+01 1.7899651083999872e+00 1.0859420306202960e+01 0 0 0
240 2 2.2143429546457410e-01 1.3507833896782648e+01 1.3305419275429340e+00 1.1816284280144549e+01 0 0 0
220 1 2.2353733881014282e-01 9.9738638922985050e+00 2.0259972316693822e+00 1.0303040944948226e+01 0 0 0
222 2 1.6441633029480282e-01 1.0174756672342024e+01 8.9797146539033914e+00 1.6711441049671517e+01 0 -1 0
160 3 -5.1066256277764666e-01 9.5705343973363117e+00 2.7658967344258221e+00 9.1034083570494833e+00 0 0 0
187 1 -1.0058310300755086e-01 1.3798680037773694e+01 9.4784869640887359e-01 9.7818658054250758e+00 0 0 0
74 1 -1.4060176031527261e-01 9.6580998312411328e+00 2.5561284564335285e+00 1.1574304131818527e+01 0 0 0
234 1 2.1537141257820713e-01 1.2794334088221959e+01 3.0352716020478208e+00 1.0750151182809409e+01 0 0 0
76 2 2.0933514998855848e-01 9.7892621745795214e+00 2.3222566350711413e+00 1.3767668805531043e+01 0 0 0
21 2 2.2702039090773857e-01 1.2197010067945625e+01 2.5079623301150487e+00 1.6308754404575790e+01 0 0 -1
218 1 -1.7109211209413810e-01 1.0706029109947687e+01 8.2115972364202883e-01 1.0278828399522112e+01 0 0 0
260 3 -3.7300842281211843e-01 1.4346166043011790e+01 5.5417449363726989e+00 9.2465188272189689e+00 0 0 0
229 3 -4.8866555699127801e-01 1.2515895419399371e+01 3.9799589606465138e+00 1.1881636459764565e+01 0 0 0
18 1 -1.3007428104303370e-01 1.2809740277510093e+01 3.2349491360928742e+00 1.6779300732707995e+01 0 0 -1
17 1 -1.1483989389313011e-01 1.3855548532631184e+01 3.8727609673324950e+00 1.6085861222329839e+01 0 0 -1
149 4 2.8665691669158133e-01 1.1278019301962937e+01 -2.0086521275524213e-01 1.4392396267959173e+01 0 0 0
202 2 2.0037360476737073e-01 1.2117302343062800e+01 4.2638106708093009e+00 9.1666276867202026e+00 0 0 0
20 2 1.6916677696629751e-01 1.3951865413929635e+01 3.6963020551578056e+00 1.5047823399387688e+01 0 0 -1
78 2 1.7837111929831798e-01 9.0505567080105482e+00 3.4419165212879324e+00 1.1602742602189409e+01 0 0 0
242 2 1.6929168756278309e-01 1.2452867863032132e+01 6.0157752033493797e+00 1.3684022567650024e+01 0 0 0
304 1 1.8651318723916660e-01 1.5202415393410464e+01 1.0201658635230125e+01 1.2288394423273520e+01 0 0 0
223 2 1.9339381626003016e-01 1.0555409388774201e+01 4.3322359330850517e+00 1.2919120593043173e+01 0 0 0
265 1 -9.1109547613322503e-02 1.4363616644015529e+01 7.9890639748929368e+00 1.1323143275109130e+01 0 0 0
310 2 2.1551912272170182e-01 1.3457542067566960e+01 9.1170884734393720e+00 1.2879306202319416e+01 0 0 0
243 3 -5.2845565879978995e-01 1.0297453539658861e+01 8.3768264354344950e+00 1.0583483123232989e+01 0 0 0
197 2 1.7744394599047925e-01 1.4293383762464659e+01 3.7182577939834274e-02 9.9570325564675066e+00 0 0 0
27 2 1.6655406765714365e-01 1.4197808392354624e+01 9.3152440368308191e+00 1.6461026319429077e+01 0 0 -1
124 1 -1.4717703000575336e-01 9.0684491967725620e+00 7.9733331840418531e+00 1.2743051629338281e+01 0 0 0
294 2 1.6267570128644979e-01 1.1584518029447102e+01 5.3539222882605690e+00 1.6152683958089355e+01 0 0 0
286 1 -1.0995313344795608e-01 1.1039412144952102e+01 5.9004129500388389e+00 1.6852569027886851e+01 0 0 0
291 1 -1.7132558293398642e-01 1.0384911427600784e+01 6.1845721311163278e+00 1.1810928282740782e+01 0 0 0
33 3 -4.2323524861576334e-01 1.2119020208170401e+01 9.4231007715715744e+00 1.4186216552630325e+01 0 -1 0
293 1 2.1122993051244099e-01 9.8896524387709253e+00 7.5111794690530536e+00 1.1701861272106223e+01 0 0 0
239 2 1.5667755958221066e-01 1.4264979901192820e+01 7.2860666596197410e+00 1.4761337489147587e+01 0 0 0
227 2 1.5687820975225963e-01 1.0947187147581820e+01 3.5604767324425790e-01 9.3506907474116971e+00 0 0 0
275 2 1.8105178831016297e-01 1.3627652673161437e+01 7.2178066124639964e+00 1.1306220317447172e+01 0 0 0
303 1 -1.5974023784971117e-01 1.4286859997372026e+01 9.1303096551004987e+00 1.2192882410787192e+01 0 0 0
209 1 -1.0639983042168987e-02 9.4452252568642407e+00 1.0190216144746755e+01 1.5096513416626818e+01 0 -1 0
213 1 -1.1095712030351430e-01 1.0043723866359755e+01 5.2559581390836589e+00 1.2828191088557631e+01 0 0 0
212 1 -1.0093359431598348e-01 9.2716739309028604e+00 9.3529774814170867e+00 1.6215767345739419e+01 0 -1 0
155 2 1.8827579986738993e-01 1.1629782780989956e+01 1.0056969555088441e+01 1.1387720623525254e+01 0 -1 0
236 1 -1.6856370759011369e-01 1.3460431199573911e+01 5.8079324007491158e+00 1.3408595491578797e+01 0 0 0
15 1 -9.9870668303446986e-02 1.4705654377559426e+01 4.8009667711831341e+00 1.6701613772763807e+01 0 0 -1
250 1 1.8488372028846181e-01 1.0660058358822811e+01 7.6954092722049792e+00 9.3164936045005540e+00 0 0 0
232 1 -9.9608100500454599e-02 1.4480881299392582e+01 6.5699565447342909e+00 1.4005108435779631e+01 0 0 0
297 2 1.8467248841707087e-01 1.1056591540913592e+01 5.8294293215541959e+00 1.1084144478957358e+01 0 0 0
241 2 2.2318003652105167e-01 1.5189384297923988e+01 4.0503106830265265e+00 1.1141113300115379e+01 0 0 0
44 2 1.7067103744454018e-01 9.4448769185409862e+00 6.0306195437019285e+00 9.8766982869355502e+00 0 0 0
192 1 -1.0166257478605631e-01 1.2551957996898409e+01 3.3463464704361239e+00 9.4146370870989351e+00 0 0 0
45 2 2.0945812331801436e-01 9.3324092764033857e+00 1.8074680924506334e+00 1.6932006854202015e+01 0 0 -1
207 3 -4.4848993693998523e-01 9.3640551836194525e+00 3.3179549906302874e+00 1.5384577332895855e+01 0 0 0
94 1 -1.6296153554510928e-01 1.0128416802507509e+01 6.4083499180919672e+00 9.1580182653751674e+00 0 0 0
285 1 -3.6249969651886184e-02 9.1550077393551792e+00 5.7062877480219552e+00 1.3818396463577944e+01 0 0 0
263 1 1.0178971381568972e-03 1.5418698632377060e+01 7.8326220634467578e+00 1.0443716728723976e+01 0 0 0
32 2 1.6600482613045264e-01 8.8143237649883677e+00 1.1789007019561704e-01 8.9704084677094880e+00 0 0 0
205 4 2.7830720988429403e-01 8.7949062277743923e+00 4.6752726165636886e+00 1.5506639274840863e+01 0 0 0
215 1 -9.2577447530895307e-02 2.0833490583319755e+01 5.4812384384531121e-01 1.1387558380040932e+00 0 0 1
252 1 -1.0827698432822828e-01 1.6992729672070372e+01 5.2299832169319842e+00 3.8733687756342854e+00 0 0 0
163 1 -1.0068815877186650e-01 1.9806285180944492e+01 6.0858235142667585e+00 8.1002298984005030e+00 0 0 0
166 1 -1.1018003840785874e-01 1.8497074996373595e+01 2.5421196847539580e+00 2.6969399908106113e+00 0 0 0
171 1 -1.2025229295231775e-01 1.7485132616550562e+01 3.1085203181261143e+00 1.8781249743738289e+00 0 0 0
176 2 1.5675327469238146e-01 1.9387357881084650e+01 3.0944835661769234e+00 2.8810871662244231e+00 0 0 0
331 1 -1.2099350209932559e-01 1.6292772696883233e+01 2.3800691498428050e+00 1.6175199620883052e+00 0 0 0
313 4 2.8123682341348955e-01 1.9732204735937088e+01 5.5184725629343545e-01 4.5397921873127745e+00 0 0 0
325 1 -2.7137785888636964e-02 1.8308053518289761e+01 1.2825958418645722e+00 3.2909710072004326e+00 0 0 0
315 1 -1.2119969634395041e-01 1.7128616425861111e+01 5.7991716386409287e-01 3.0347511924656101e+00 0 0 0
255 2 1.6376799375272044e-01 1.8827704692431869e+01 6.2340680684491128e+00 3.5421291839182261e+00 0 0 0
330 1 -1.1695956215662832e-01 1.6086324661009257e+01 1.1222500378782216e+00 2.2260922775317824e+00 0 0 0
6 2 1.5367509889242179e-01 2.0137939046500588e+01 4.6852667418199481e+00 2.4578263467888868e+00 -1 0 0
281 2 1.8359373200486165e-01 1.8184346521782075e+01 8.4129322514117906e+00 5.5055966631374957e+00 0 0 0
156 2 2.0388677684737055e-01 2.0869975613349904e+01 8.7735338634443372e-01 2.1693297945856380e+00 0 0 1
247 1 -1.1818538858393376e-01 1.8349987921777430e+01 5.5308335758737774e+00 4.1522800433547431e+00 0 0 0
314 3 -4.5047880436549098e-01 2.1004230730338680e+01 1.1658099924873406e+00 4.1294609186911027e+00 0 0 0
352 1 -1.7513880478875900e-02 2.0530931692221877e+01 6.6775357455282078e+00 7.0848163928225754e+00 0 0 0
262 3 -5.3812951997808944e-01 1.6421037557321803e+01 8.3353288849812515e+00 3.3181362550390161e+00 0 0 0
332 2 1.8662310752238132e-01 2.0996297637395983e+01 2.1384969888668510e+00 6.6505714961437832e+00 0 0 0
355 1 -1.4725061276821685e-01 2.0834080426024034e+01 8.7290743317800246e+00 8.3395865817381392e+00 0 0 0
144 1 -9.0025639264558602e-02 1.8127501420610482e+01 5.8211670140814464e-01 7.1224176986511916e+00 0 0 0
146 2 2.0370887825447148e-01 1.7490924275838232e+01 -1.1047039403366689e-01 6.6206849210913630e+00 0 0 0
338 2 1.6121668418673604e-01 1.9233802548384059e+01 1.0009443257567570e+01 1.4774802011256956e+00 0 -1 1
324 1 -2.6085486088645238e-02 1.9262550621797192e+01 1.0453521078573675e+00 6.4513622361482881e+00 0 0 0
158 3 -4.3327762513091667e-01 2.1892274889548649e+01 4.4384878807864636e+00 5.9043220880177261e+00 0 0 0
326 1 -1.0664247550637546e-01 2.0119042692842960e+01 1.8743184118788123e+00 7.1630706272441564e+00 0 0 0
322 3 -4.1689192952393023e-01 2.1458132551456547e+01 6.2712680824051050e+00 4.4213079093436445e+00 0 0 0
344 1 -1.0503159624089385e-01 1.9897071445068203e+01 -4.3743975417189501e-01 7.4755055454581931e-01 0 0 1