LAMMPS data file via write_data, version 29 Oct 2020, timestep = 300007

384 atoms
4 atom types

2.2512903619941045 21.960711638004124 xlo xhi
-0.6987618439815134 10.368761843982536 ylo yhi
0.34092199249625915 17.46107900750562 zlo zhi

Masses

1 12.0107
2 1.00794
3 15.9994
4 32.064999

Atoms # charge/kk

69 2 1.6704173433232034e-01 6.1197323096920746e+00 4.2167784509824315e+00 4.5564356674518622e+00 0 0 0
170 1 -8.4985329557300038e-02 5.6525639331847595e+00 1.5025931401289081e+00 1.2887404479001519e+00 0 0 0
11 1 -1.3688505571121212e-01 3.2203779409881186e+00 8.9514024072462721e+00 6.6385832018076651e-01 0 0 0
49 3 -5.2758941946645166e-01 4.4884719051843227e+00 3.8731145511701324e+00 2.3913354609699020e+00 0 0 0
108 1 -1.6811848256118714e-01 4.8710035524120698e+00 7.6309908868140548e+00 1.7845889817164362e+00 0 0 0
58 1 2.1338820900711661e-01 3.1639319264230976e+00 3.8714217803301976e+00 1.7959409437236040e+00 0 0 0
59 1 -1.6659449785760225e-01 3.6561853451542508e+00 2.0440060650359189e+00 3.9082241958429749e+00 0 0 0
60 1 -1.6596723580102848e-01 5.4416274552702744e+00 3.4364477142610372e+00 4.6826513853635694e+00 0 0 0
61 1 2.2071014703991934e-01 4.5377173800784112e+00 3.1183719569764139e+00 3.6488549021232970e+00 0 0 0
154 2 1.5870797644469142e-01 2.7693687850994966e+00 9.4359865092295048e-01 1.0582553805464716e+00 1 0 1
48 3 -4.1757045039320889e-01 5.7579475186700559e+00 4.5147304432609003e-01 8.4460229629494101e+00 0 0 0
179 2 1.7652449665554015e-01 4.6255161223156422e+00 1.6011249894793067e+00 1.1548765413251072e+00 0 0 0
46 4 2.8062445284462834e-01 4.4243264880238895e+00 9.7881305371338967e-01 8.0519471587217151e+00 0 0 0
162 1 -2.9225037161884029e-02 7.4962216213194637e+00 1.6881584244901801e-01 2.2687057714816805e+00 0 0 0
145 1 -1.1221940614522617e-01 6.1361647690569034e+00 4.7954474637480143e-01 2.1655140126167871e+00 0 0 0
51 1 -1.9749473655954239e-02 4.4479398775200689e+00 1.8596738718368691e+00 6.2411101294783373e+00 0 0 0
164 1 -1.1721595045417892e-01 8.4531701700037125e+00 1.3852876789453756e+00 5.2702463296031157e+00 0 0 0
65 2 1.6634626758721857e-01 6.1774355806607071e+00 3.0423431285214484e+00 6.6688303221286569e+00 0 0 0
55 1 -1.0574058131187603e-01 5.4416961859501161e+00 2.8031128409914103e+00 5.9532896863566620e+00 0 0 0
54 1 -8.1085277012993520e-02 3.6396167945259483e+00 1.4118210840266634e+00 5.1806970381063673e+00 0 0 0
226 2 1.5610638236157071e-01 8.2120140551709344e+00 8.1948688961918723e+00 3.7395971418213708e-01 0 -1 1
39 1 -1.1402312182652088e-01 8.3753400206825539e+00 7.2129090299802900e-01 1.3221003717506414e+00 0 0 0
141 4 2.7732684568502591e-01 8.1847575165294835e+00 9.9417159477368173e+00 3.6133040058851140e+00 0 -1 0
178 2 1.7316898660714594e-01 8.7819515296048216e+00 3.2417357252070529e+00 6.2665648112718930e+00 0 0 0
47 3 -4.3019089764299828e-01 3.4728804529962249e+00 -1.3121892543232275e-01 7.9967892852043079e+00 0 0 0
106 1 -6.9671252323611016e-02 5.6548158655299003e+00 9.0510162905992217e+00 6.3244716752295380e+00 0 0 0
63 2 2.0849766694730379e-01 3.3787859678503467e+00 3.8112604248697139e+00 7.5925303353091227e+00 0 0 0
251 1 -1.2320462128528259e-01 7.5726377673790601e+00 5.6743080370155159e+00 4.1125713685783998e+00 0 0 0
383 2 1.6932232156559610e-01 6.5039597817593595e+00 4.7211195054985362e+00 2.5011811621472124e+00 0 0 0
147 2 1.9332967434410625e-01 5.4391357321643543e+00 -1.0253356165433550e-01 2.6888757844686832e+00 0 0 0
100 3 -4.1233252162303063e-01 7.8750394647097206e+00 6.4506558515968315e+00 7.7425249041914093e+00 0 0 0
103 1 -6.6196647705289349e-03 5.5704907311168306e+00 7.6571839170897524e+00 6.4440629735492241e+00 0 0 0
253 1 -1.2818528904841961e-01 7.4038109500459699e+00 4.7195063940199544e+00 3.0864821338656516e+00 0 0 0
75 2 1.5566841744408730e-01 8.1932346058648360e+00 5.6121415526025231e+00 9.9506759623395458e-01 0 0 1
95 1 -1.1209966222830042e-01 8.3661333527715147e+00 3.7520541080645686e+00 2.7526110970478959e+00 0 0 0
116 2 2.0365159312558320e-01 6.1256695429685202e+00 9.6569312353825474e+00 7.0408021779916607e+00 0 0 0
112 1 -1.3941461298676824e-01 4.2498201452352227e+00 7.5573499448787196e+00 4.3960734821547973e+00 0 0 0
29 3 -4.2888326643363445e-01 7.2672385021317556e+00 8.8071791553985630e+00 3.6973050868718409e+00 0 -1 0
53 1 -7.4783059710784305e-02 3.4706812592318586e+00 3.7364501516751765e+00 8.7265549589749991e+00 0 0 0
121 2 1.8847817779089662e-01 3.6546430166435324e+00 7.0242072483712015e+00 3.6829771331572743e+00 0 0 0
118 2 1.7844698827941502e-01 5.5994210212734874e+00 7.4472513429628853e+00 2.5443234958244587e+00 0 0 0
257 2 1.7613884852337858e-01 6.8751728825009391e+00 6.4415924714862989e+00 4.3287236881985294e+00 0 0 0
107 1 -9.4722011938676395e-02 4.8843000948718869e+00 6.8868180050660879e+00 5.4875423489030908e+00 0 0 0
120 2 1.7952184587423173e-01 5.2356973836509857e+00 -3.1041985406903710e-01 5.0739427490614828e+00 0 1 0
117 2 1.7841643100703056e-01 4.7845200699703057e+00 5.8356979240596898e+00 5.5891677775525821e+00 0 0 0
101 3 -4.9705323895692688e-01 3.7824216239482786e+00 9.5609966827303463e+00 3.0433443722309130e+00 0 0 0
110 1 1.9429088810786574e-01 3.9915852826147473e+00 8.7517973040143993e+00 1.8412131375899738e+00 0 0 0
113 1 2.3071150692999712e-01 4.3885670425724710e+00 8.9506442866898475e+00 4.2453922815724390e+00 0 0 0
111 1 -1.2259607461357430e-01 5.0620418480170226e+00 9.7140543016020366e+00 5.2148979046596660e+00 0 0 0
97 2 1.7107167537887841e-01 8.2654284500986019e+00 3.1520102453816570e+00 1.9004553694272330e+00 0 0 0
98 4 2.7262756338251293e-01 6.4880910677749366e+00 6.8016178553522941e+00 8.0354295719868016e+00 0 0 0
64 2 2.1274153465033510e-01 2.9451992894792633e+00 6.0498990684890985e-01 5.3013159258369473e+00 0 0 0
56 1 -1.4752377090598010e-01 2.9882245012947850e+00 4.1312216719734307e+00 4.4541361454153172e-01 0 0 0
99 3 -4.1369456310629132e-01 5.8053896335290505e+00 5.6152171853123809e+00 8.5507680429913435e+00 0 0 0
68 2 1.6509695678256964e-01 2.9741205627971206e+00 1.7295484266266299e+00 3.1535924273257256e+00 0 0 0
9 1 -1.1619514069787561e-01 5.0414072709359061e+00 6.9022363844207568e+00 5.8309336855448424e-01 0 0 0
161 1 -2.2250843462644335e-02 8.3953047964483307e+00 -1.5773243516515052e-02 5.3384801753963833e+00 0 0 0
12 2 1.3870481548143204e-01 5.7583645852527603e+00 6.1198981460705717e+00 5.3863077277711380e-01 0 0 0
14 2 1.8244643799805360e-01 2.5339664564981446e+00 9.7684007702382623e+00 6.8326761396871927e-01 0 0 0
174 2 1.5202933307617869e-01 8.3424598228992153e+00 1.8181313614253247e+00 4.3145341865509810e+00 0 0 0
137 2 1.9500913043122980e-01 7.1992442463891955e+00 3.5496665972161159e+00 8.9833051764161045e+00 0 1 0
83 1 -1.3465436257359509e-01 3.5301700369839306e+00 3.5141460142538938e+00 1.1501564900567294e+01 0 0 0
13 2 1.5417466993571796e-01 2.7009015626135966e+00 8.4013647398260538e+00 1.5791656808608584e+01 0 0 -1
139 2 2.0213911522757147e-01 7.1464000931492526e+00 2.6938175652122092e+00 1.3759692678958892e+01 0 1 0
373 2 1.6590510266404737e-01 7.5727764217527884e+00 5.5180119763084736e+00 1.0471427446375372e+01 0 1 0
317 4 2.9149120108209914e-01 3.0690217207042014e+00 8.4827168530611685e-01 1.5255395227525000e+01 1 0 0
81 1 -1.0290725346431399e-01 6.1313522108081031e+00 7.2791982740355703e+00 1.2269447929625615e+01 0 0 0
85 1 -1.5053734522348294e-01 5.0261580649464390e+00 6.5105850077451954e+00 1.1847185416227079e+01 0 0 0
88 2 1.4765159728238414e-01 7.0851441296869035e+00 7.1913380718291622e+00 1.1828561151679960e+01 0 0 0
102 1 -2.9600087838104316e-02 6.3473910782157725e+00 8.4238890483883733e+00 9.2589636510624675e+00 0 0 0
52 1 -9.1618907353893234e-02 3.9071475240003379e+00 2.4022375654245387e+00 1.0698090109959891e+01 0 0 0
216 1 -1.0490405123362896e-01 8.2442429743093513e+00 8.8746512222000682e+00 1.6720533258443748e+01 0 -1 0
128 1 -1.3117089850071900e-01 7.5423347251598845e+00 4.4866754977920795e+00 1.0879385831470669e+01 0 1 0
129 1 -1.0182305184668841e-01 7.5107522469829187e+00 4.1677937624083334e+00 1.2263409151263897e+01 0 1 0
130 1 -4.6177634796922218e-02 7.2679847602078089e+00 3.3915107406396436e+00 1.0029899137327352e+01 0 1 0
133 1 -1.3507273067541253e-01 7.1817322852914467e+00 2.8669993685669946e+00 1.2711741445165115e+01 0 1 0
134 1 -1.4900424133169640e-01 6.9929528336860729e+00 2.0866460339165140e+00 1.0485319837793032e+01 0 1 0
136 2 1.6795942187609492e-01 7.6803294184949902e+00 4.9439489555186897e+00 1.2983419423535997e+01 0 1 0
92 2 1.5196176801017960e-01 2.6422380052846073e+00 7.6147504583828329e+00 1.4023602946391064e+01 0 0 0
62 2 1.8463045067696848e-01 4.3256887135279811e+00 1.5423016328516468e+00 1.1147104585656340e+01 0 0 0
70 3 -4.4143094033775604e-01 7.8500230814292937e+00 4.1131036382007622e+00 1.5595265761217471e+01 0 0 0
90 2 1.8577634249243111e-01 3.4892423044066088e+00 3.3602486114467944e+00 1.2542810136575445e+01 0 0 0
378 2 1.4122148294787723e-01 4.4025837636109557e+00 6.5649886902479961e+00 1.5735757060410474e+01 0 0 -1
36 2 1.9985892805872288e-01 6.3429119258256552e+00 -1.4133365884442917e-01 1.4948201036813085e+01 0 0 0
119 2 1.7262763130185255e-01 8.5066281209216932e+00 1.0325813930325932e+01 1.1099881484532235e+01 0 0 0
318 3 -4.1266607380888970e-01 4.1121244333203473e+00 1.7802684290013058e+00 1.5679917816701218e+01 1 0 0
150 3 -4.3585773443631065e-01 3.6875465469344784e+00 -4.4188348160658836e-01 1.4897399290547494e+01 1 0 0
125 2 1.5099509145505938e-01 8.2939471836276866e+00 7.3638184386798482e+00 1.4667883726056449e+01 0 0 0
115 2 1.8407848591466677e-01 8.4327650870994617e+00 8.5246412009912280e+00 9.3609773979301689e+00 0 0 0
114 2 1.7262140547156574e-01 4.1911559754782761e+00 8.5471419350639870e+00 9.4601978834437794e+00 0 0 0
35 2 1.7473782111622518e-01 8.4821851739308709e+00 4.4612924655503608e-02 1.3667513211814692e+01 0 0 0
82 1 -8.6354938597222694e-02 4.7074753443856991e+00 8.2753851705506456e+00 1.3960783411898564e+01 0 0 0
91 2 1.9059321013044522e-01 5.1135408796601318e+00 5.9364775010967641e+00 1.0961229208812306e+01 0 0 0
131 1 -1.1816147682780488e-01 5.1665062049126087e+00 9.8922307534296952e+00 1.0798113961866385e+01 0 0 0
80 1 -1.2046804670440178e-01 5.9833085440458529e+00 8.1850322112501903e+00 1.3345216663403081e+01 0 0 0
105 1 -9.8028405723416187e-02 7.5505100215085426e+00 8.9536016735546582e+00 9.7216231657820504e+00 0 0 0
87 1 2.1369874674394779e-01 3.7483943124669081e+00 6.5786099938424787e+00 1.2474107545439344e+01 0 0 0
127 3 -4.9072672470981465e-01 6.5066485213547640e+00 4.4323517379419175e-01 1.2331294002775168e+01 0 1 0
140 2 2.1943391530888701e-01 6.8195241488506007e+00 1.3008438061487262e+00 9.7876338947855643e+00 0 1 0
50 1 -2.6037621288704668e-02 3.8595460384803704e+00 2.5131142177938162e+00 9.3169478248918018e+00 0 0 0
73 1 -9.6242399702654219e-02 7.2155484391383062e+00 -6.6614500259239262e-01 1.5268171969208533e+01 0 0 0
135 1 2.0543497785754422e-01 6.8749299944923834e+00 1.7667333049685334e+00 1.1861275859989858e+01 0 1 0
86 1 -1.8325299913644924e-01 3.6053473917800911e+00 7.4846341963882335e+00 1.3563083963619530e+01 0 0 0
138 2 1.7788155580203521e-01 4.2717293229055748e+00 1.0142296654282317e+01 1.1283489994973252e+01 0 0 0
217 1 -1.1329630700417849e-01 7.0873596927930969e+00 9.5930873762971327e+00 1.6410335546335482e+01 0 -1 0
132 1 2.0045037222716408e-01 6.4029846218354187e+00 -6.0081727955754982e-01 1.1253976839215406e+01 0 1 0
84 1 1.9364150824474893e-01 3.1469794499928088e+00 4.7456255944279038e+00 1.0945854459241602e+01 0 0 0
374 2 1.5148438265100031e-01 6.8129969436588551e+00 8.7630164837021471e+00 1.3677875994538207e+01 0 0 0
10 1 -1.0955244234774171e-01 3.3049128952091960e+00 8.1719532541252988e+00 1.6599893414683681e+01 0 0 -1
109 1 -1.5907333106802710e-01 7.6155271125626074e+00 9.9666940893331155e+00 1.0707199394334344e+01 0 0 0
8 1 -1.3726030962349758e-01 4.2668162708940569e+00 7.1744333854893521e+00 1.6560586295810825e+01 0 0 -1
384 2 2.0500920521232938e-01 6.0758709114700800e+00 2.4636832427163324e+00 1.6559275832690840e+01 0 0 -1
89 2 1.9945881621008948e-01 4.5668493073354179e+00 8.9959392114785448e+00 1.4747176953619208e+01 0 0 0
104 1 -6.5380659086256676e-02 5.1384765928881668e+00 8.9152808300420094e+00 9.7831703342697516e+00 0 0 0
208 2 1.6347187226433035e-01 6.1312785170497017e+00 9.4743007264421308e+00 1.6844918881397298e+01 0 -1 0
79 3 -5.3189214796491291e-01 2.6683662521329872e+00 5.7773709710812691e+00 1.1951142448676400e+01 0 0 0
57 1 -1.4215771838987371e-01 3.0525814367192554e+00 4.8480985457264367e+00 9.5735444051065812e+00 0 0 0
34 1 -1.1895614347279611e-01 8.4318244669816664e+00 -4.4812436902771585e-01 1.4584227255739517e+01 0 0 0
66 2 1.6563247510541787e-01 3.8156438734909153e+00 4.3894713199472433e+00 1.6990008295651783e+01 0 0 -1
67 2 1.8365028226452643e-01 2.6098970012925999e+00 5.7113675026008641e+00 9.1658013786435895e+00 0 0 0
45 2 2.0644039561124589e-01 8.5407316655401075e+00 1.7913497821668629e+00 1.6638182327519051e+01 0 0 -1
41 1 -9.1201735996369118e-02 7.9064703663766212e+00 1.6177380809540836e+00 1.7452780518978088e+01 0 0 -1
172 1 -7.9123389813357009e-02 6.5530125797529735e+00 2.0562430132395932e+00 1.7454507546676268e+01 0 0 -1
204 2 1.6989650280191310e-01 1.0372029640746563e+01 8.2328740301465675e-01 3.7116503914334618e+00 0 0 0
186 1 -2.6413103223351744e-02 1.3308208625946008e+01 6.5248610987920441e-01 5.4646479781508281e+00 0 0 0
201 2 1.6979894512959237e-01 1.3578886040053115e+01 4.3050268030284000e+00 2.2856423849062271e+00 0 0 0
199 2 1.6888444859508109e-01 1.5120634200708894e+01 1.4712536129875213e+00 4.8256346100269303e+00 0 0 0
193 1 2.1015452817950095e-01 1.2566879241230948e+01 3.0123401634288096e+00 8.7311155609056734e-01 0 0 0
188 1 -9.3976322533044984e-02 1.2982875743156754e+01 2.3253044089185617e+00 8.1937418968653031e+00 0 0 0
381 2 1.6116229658298289e-01 1.5234027320753356e+01 4.4113621251441586e+00 4.3339971441142495e+00 0 0 0
37 3 -4.0209191218003965e-01 1.2128670076821907e+01 3.5763562000900584e+00 5.6072181346487371e+00 0 0 0
184 3 -5.0839766985072654e-01 1.1652649002989694e+01 2.2617211326194409e+00 1.7601230148395033e+00 0 0 0
200 2 1.5891445248287983e-01 1.1401635126599045e+01 -9.2828711941890810e-02 5.8035106764794229e+00 0 0 0
181 4 2.7540010559320977e-01 1.4205082249824503e+01 -1.5831887246084189e-01 7.0232022227397204e+00 0 0 0
269 1 -1.8494212514942951e-01 1.3304452253528108e+01 9.6035672041474722e+00 2.4641306638451144e+00 0 0 0
19 2 1.5752685576653805e-01 1.5004042809829546e+01 5.4478895493147634e+00 5.4079236354099303e-01 0 0 0
194 1 -1.4201496249411871e-01 1.3521081452112416e+01 2.0505304663423725e+00 3.4584876545400656e+00 0 0 0
23 1 -9.0229612548735280e-02 1.2285355396573442e+01 1.0140123202007347e+01 1.6231278161191058e+00 0 0 0
190 1 -9.2737487040222277e-02 1.1950555057351810e+01 5.2146661865510291e-01 5.1515214529597575e+00 0 0 0
203 2 1.4975767720566188e-01 1.4160341277175972e+01 2.6506255751187733e+00 2.8601964133358915e+00 0 0 0
42 2 1.9929933373639180e-01 1.0287958862872312e+01 4.2722893236268158e+00 7.9475126137238385e+00 0 0 0
196 1 2.0971427945152191e-01 1.2167551870037416e+01 1.8661180229903498e+00 3.0864894745975606e+00 0 0 0
25 1 -1.6845732628362517e-01 1.4254774181175341e+01 8.6894666572273582e+00 5.4207875140678230e-01 0 0 0
198 2 2.1538715525995714e-01 1.2654225754020249e+01 2.5576004804606325e+00 7.1676605482300495e+00 0 0 0
93 1 -9.4285571980532987e-02 9.6216297824792445e+00 3.7910192631614952e+00 3.4209172365710554e+00 0 0 0
195 1 -1.5133012588309849e-01 1.1379342548831149e+01 1.0872137512610849e+00 3.9678383985955556e+00 0 0 0
26 2 1.7653916875563602e-01 1.1579393449336211e+01 -2.6945725056199166e-01 2.0928760001015330e+00 0 1 0
189 1 -9.0705897747370146e-02 1.4084482571731488e+01 1.4442453702381965e+00 4.6232644304486685e+00 0 0 0
96 2 2.0662113375264840e-01 1.0424113767795243e+01 3.1199840724660741e+00 3.1618383736817823e+00 0 0 0
169 1 2.2062093511671585e-01 9.1989583940416306e+00 1.6762727787263827e+00 7.6011444795113849e+00 0 0 0
268 1 -4.7478071571843541e-02 1.4448714722192515e+01 7.0360008464103379e+00 5.9662103719038759e+00 0 0 0
249 1 -1.3828694284043730e-01 1.1100959242368962e+01 8.0595018361079784e+00 8.1816620993259033e+00 0 0 0
182 3 -4.0097860668045571e-01 1.3612714992823555e+01 9.6124257124769699e+00 7.3398875126336049e+00 0 -1 0
123 1 -8.5383716007907381e-02 9.5487527689202150e+00 6.9127834805203934e+00 1.9771320585368413e+00 0 0 1
256 2 1.8056999833526369e-01 1.1496480030759656e+01 9.0126104625572392e+00 8.3120892688539456e+00 0 0 0
279 2 1.6331831908488778e-01 1.3270628218797775e+01 9.7932022013163476e+00 3.5188161971265521e+00 0 0 0
38 1 -8.1829984897778513e-02 1.0538007219186769e+01 5.3102612109693039e+00 8.0547217526473176e+00 0 0 0
71 1 -1.2137897864436543e-01 9.1368063854627373e+00 6.0028102550088835e+00 9.8763480103722423e-01 0 0 1
185 1 -2.8461768110795153e-02 1.3711808726114525e+01 1.1493238319776544e+00 8.4749047378919276e+00 0 0 0
273 1 -1.3816135582513475e-01 1.4390189165723111e+01 7.6271035926794823e+00 4.7116040200089149e+00 0 0 0
271 1 1.7453516150751194e-01 1.4422714330763776e+01 8.9012041497043075e+00 1.9332555047251894e+00 0 0 0
289 1 -9.8839928449519845e-02 1.1782578426186125e+01 6.8387656113788680e+00 9.9288536649779113e-01 0 0 1
335 2 1.6605205794508096e-01 1.5330180570101966e+01 -1.8156375816818160e-01 2.2051233667464025e+00 0 0 0
157 4 2.8463236396135388e-01 1.1581672168581237e+01 4.9034601822833475e+00 5.2770842427975913e+00 0 0 0
191 1 -1.8586702226896315e-01 1.3541555328290356e+01 3.9808225658412248e+00 1.2405231167494943e+00 0 0 0
245 1 -1.1629753124998884e-02 9.8330893689135745e+00 4.7810440312074496e+00 4.3926219892743843e+00 0 0 0
244 1 -1.5847731442743249e-02 1.1126345717587160e+01 5.9569373405851529e+00 6.9588319654613775e+00 0 0 0
143 3 -4.6467151459860828e-01 9.5366934637598586e+00 9.4886618037017953e+00 3.2996676468819306e+00 0 -1 0
254 2 1.6712181539234711e-01 1.1851234862978259e+01 7.7981047822671412e+00 6.1406743342332426e+00 0 0 0
159 3 -4.2316534985024012e-01 1.2499052004115391e+01 5.6728306146603131e+00 4.4411900636863963e+00 0 0 0
290 1 -7.3899994623112794e-02 1.0898892384964542e+01 7.2963946338123620e+00 2.0114854419698633e+00 0 0 1
246 1 -9.2572873626232913e-02 1.1383700412214418e+01 7.3330828051805295e+00 6.9999899150165978e+00 0 0 0
283 2 1.8560052271371888e-01 1.1143335654082408e+01 8.0875394907733966e+00 2.6792612230205806e+00 0 0 1
32 2 1.5773787031869016e-01 9.2859719956546076e+00 -2.5638212062255772e-01 8.5215188380604445e+00 0 0 0
282 2 1.8329815239020336e-01 1.3450163433394192e+01 7.6989760146098556e+00 4.2518599869521250e+00 0 0 0
278 2 2.0665870991610538e-01 1.3589666289777931e+01 6.6974578476637934e+00 6.4411777864630739e+00 0 0 0
43 2 1.6957152468950490e-01 9.3765154308673537e+00 3.7262074374969256e-01 1.3185383163589843e+00 0 0 0
260 3 -3.6207803101595482e-01 1.4465417362881450e+01 5.6353381086995311e+00 8.8400818107873960e+00 0 0 0
40 1 -1.7274623612581885e-01 9.1414497873290976e+00 2.5716039798398915e-01 7.6304764626826520e+00 0 0 0
296 2 1.6040649893914338e-01 1.2822254714540062e+01 7.0686677465907950e+00 1.0983943771865128e+00 0 0 1
160 3 -5.2471517128280898e-01 9.5362341254696172e+00 2.5241021725743336e+00 8.7394146283622209e+00 0 0 0
77 2 1.9982486210600633e-01 8.8913495375935820e+00 7.2631565369196034e+00 2.7191250952178310e+00 0 0 1
175 2 1.8408059113106562e-01 9.0999576934159965e+00 6.4366396298794122e+00 5.4906268596136085e+00 0 0 0
165 1 -1.0004356388581219e-01 8.8298412691241808e+00 5.6859455700491983e+00 4.7739373837761292e+00 0 0 0
31 2 1.6192860475988616e-01 8.9822469235485816e+00 9.4573162753446525e+00 6.5161732511677419e+00 0 -1 0
30 1 -1.0451765591865761e-01 8.8381816895019405e+00 -5.7232884567619569e-01 6.5394296562248462e+00 0 0 0
168 1 -1.5107710736783400e-01 8.8590469079551735e+00 2.2192440622008043e+00 6.3588798454093176e+00 0 0 0
237 1 2.3265239797293641e-01 1.4186834146796121e+01 4.6492219616676866e+00 1.2053934419501465e+01 0 0 0
284 1 -4.6240684255883166e-03 9.9867152233245289e+00 5.6310286228804687e+00 1.7054784387660771e+01 0 0 0
227 2 1.5434553631324269e-01 1.0907742464582164e+01 8.0666796476724076e-02 8.9274047802373762e+00 0 0 0
210 1 -2.3440162498222780e-02 1.0821956982757087e+01 3.7358612785961604e-01 1.2321836206273924e+01 0 0 0
153 1 -7.5429054585250982e-02 1.1108632309609769e+01 -1.8468254024080538e-01 1.1074034252979530e+01 0 0 0
78 2 1.8076326687256325e-01 9.3977970839481593e+00 3.2791814122505865e+00 1.1078985102596398e+01 0 0 0
151 3 -4.2103488552901219e-01 1.2231575097343361e+01 2.2599688372575216e-01 1.4862889030986427e+01 0 0 0
72 1 -1.0353874703286270e-01 1.0299351159645630e+01 1.6806632765655891e+00 1.2300985548985487e+01 0 0 0
233 1 -1.5465669292441633e-01 1.3792344569337173e+01 1.7490664607761850e+00 1.0768632338384879e+01 0 0 0
240 2 1.8375378179558882e-01 1.4088410464236132e+01 1.4901620484415590e+00 1.1743175276580439e+01 0 0 0
220 1 2.1414430532757200e-01 1.0100417723974893e+01 1.7248672890931398e+00 9.8660527542351080e+00 0 0 0
222 2 1.6250978995594664e-01 1.0416032218112427e+01 8.4941336831086183e+00 1.6404584181416617e+01 0 -1 0
297 2 1.9430159436411554e-01 1.1336435653663791e+01 5.7843262344701287e+00 1.1163564065335857e+01 0 0 0
187 1 -9.0752600980360976e-02 1.4079538397718114e+01 7.9650336929460852e-01 9.7818454280054166e+00 0 0 0
74 1 -1.3890936690500019e-01 9.9480764202082597e+00 2.3673277305245053e+00 1.1088812904852031e+01 0 0 0
234 1 2.1125786178707645e-01 1.3153974574627441e+01 2.9929992861043249e+00 1.0564839884203533e+01 0 0 0
76 2 1.9103600206633756e-01 1.0167515986266011e+01 2.1813747655677584e+00 1.3220145005748014e+01 0 0 0
21 2 2.3088121796144095e-01 1.1601574651537412e+01 2.1458970397255026e+00 1.6386306030143867e+01 0 0 -1
218 1 -1.9013962667036810e-01 1.0695055790947681e+01 4.7092778196554147e-01 9.8731416618308625e+00 0 0 0
285 1 -3.2753064186047384e-02 9.5861338453788711e+00 5.7524248834514671e+00 1.4042064380407782e+01 0 0 0
229 3 -4.9619317509625849e-01 1.2957765034952208e+01 4.0673202145840781e+00 1.1584966550394125e+01 0 0 0
18 1 -1.0034566297482816e-01 1.2373323082414284e+01 2.8248676210113088e+00 1.6598564673827024e+01 0 0 -1
17 1 -9.7578415073022576e-02 1.3160486101477762e+01 3.4075542436765769e+00 1.5590176964018395e+01 0 0 -1
149 4 2.7690770773988693e-01 1.1358678307285933e+01 -6.1947290151065992e-01 1.4064293061286676e+01 0 0 0
294 2 1.6486150175109424e-01 1.2006981183295970e+01 5.6182616325414809e+00 1.6303066580813020e+01 0 0 0
20 2 1.7894706470917646e-01 1.2986737382005249e+01 3.1888918210770361e+00 1.4560894880447266e+01 0 0 -1
192 1 -1.0788359241892091e-01 1.2713027335077909e+01 3.2394611135823421e+00 9.2683747814879158e+00 0 0 0
242 2 1.6960124634316751e-01 1.3347188358161930e+01 5.9639079518035398e+00 1.3440762230305971e+01 0 0 0
209 1 -2.3365538093944337e-02 9.6040871253978342e+00 9.9664810401672845e+00 1.5019254474678300e+01 0 -1 0
223 2 1.8091737242016348e-01 1.0888026378196994e+01 4.3413613998661136e+00 1.3103158403121897e+01 0 0 0
286 1 -1.0617441680751957e-01 1.1326753744846126e+01 6.0051727147793281e+00 1.7032381447535041e+01 0 0 0
122 1 -1.2124339639081652e-01 8.9694392163857497e+00 7.0001881985916867e+00 1.3932186487438354e+01 0 0 0
243 3 -5.2003339721585184e-01 1.0409734915537625e+01 8.2209843775624343e+00 1.0581403216760709e+01 0 0 0
309 2 1.7841212568806553e-01 1.4388018046167959e+01 -4.9247436951971098e-02 1.5642615394626880e+01 0 1 0
27 2 1.8253429729222312e-01 1.3095012450030570e+01 8.7339984959033767e+00 1.5795769287561743e+01 0 0 -1
44 2 1.6111199100121373e-01 9.8720174211593914e+00 5.5159161620045793e+00 1.0031315332923743e+01 0 0 0
302 1 -7.4023139715317515e-02 1.5017189603874721e+01 5.6040493866913976e-01 1.5043041852732809e+01 0 1 0
24 1 -1.0489898129804381e-01 1.3142553381962324e+01 9.0496065499464411e+00 1.6812341391694051e+01 0 0 -1
291 1 -1.6470980506307800e-01 1.0700358649787482e+01 6.1437558401479642e+00 1.1908294887087571e+01 0 0 0
33 3 -4.0749683124048114e-01 1.2141111046429479e+01 9.2280934015477918e+00 1.3778269124577671e+01 0 -1 0
293 1 2.2588642983748367e-01 1.0156807897302732e+01 7.4311283053298673e+00 1.1791980732795876e+01 0 0 0
16 1 -1.0934937175127246e-01 1.4335926707639999e+01 4.6385176761694646e+00 1.7365405063668728e+01 0 0 -1
197 2 1.8533996127588573e-01 1.4670411001752978e+01 -6.6751970630899646e-02 9.9561695679016502e+00 0 0 0
28 2 2.1257198992854820e-01 1.5106113645190243e+01 8.0785160107054406e+00 1.7226047005714786e+01 0 0 -1
207 3 -4.3693806594033174e-01 1.0031066413201620e+01 3.1833348590249084e+00 1.5314861602941622e+01 0 0 0
212 1 -1.1974420567123395e-01 9.5238865297156785e+00 9.0462543523692034e+00 1.6083020932448427e+01 0 -1 0
213 1 -1.0655805752468289e-01 1.0437814653328493e+01 5.2992422446004674e+00 1.3022763307787404e+01 0 0 0
94 1 -1.5206266432844759e-01 1.0310653279493438e+01 6.0581854644651090e+00 9.2511401518391931e+00 0 0 0
155 2 2.0636329597775241e-01 1.1610993529671601e+01 9.9498936621883836e+00 1.1008612889213422e+01 0 -1 0
236 1 -1.8433696060756785e-01 1.4246664348624545e+01 5.6750944498653064e+00 1.2983503050127144e+01 0 0 0
15 1 -1.2166965559404022e-01 1.4079256310833117e+01 4.4040904670564904e+00 1.6009583840481628e+01 0 0 -1
250 1 2.1347540279640456e-01 1.0584768397398028e+01 7.4272794987229638e+00 9.3496349062908184e+00 0 0 0
376 2 1.6410685758204507e-01 1.4561015878102035e+01 4.9630415437984547e+00 1.5248088767280098e+01 0 0 -1
377 2 1.8180728467408536e-01 1.1438077183442946e+01 -6.6624763015776078e-01 1.6771536991949741e+01 0 1 -1
205 4 2.7822571107783028e-01 9.2772379640400882e+00 4.4260338391895591e+00 1.5523263193253216e+01 0 0 0
124 1 -1.6597287629770913e-01 9.2913569991379390e+00 7.8493461167734004e+00 1.2832515961927919e+01 0 0 0
312 2 1.6698528008343358e-01 1.4870411197018866e+01 -6.5551611849050107e-01 1.3401576706842343e+01 0 1 0
202 2 1.9852578504852578e-01 1.2191908166919855e+01 4.1285499979294977e+00 9.0530358676316016e+00 0 0 0
126 2 1.6077124704690474e-01 8.9171827982022318e+00 8.8334903278619237e+00 1.2788274093567075e+01 0 0 0
275 2 1.8599304512802120e-01 1.5050055701404116e+01 7.1752689420768583e+00 1.1418274363268832e+01 0 0 0
380 2 1.3774256601445506e-01 1.5337390437928331e+01 2.0563156048110032e+00 1.6628177480207931e+01 0 1 0
22 1 -1.0553208850185862e-01 1.2181072168214488e+01 9.8862185893782186e+00 1.7357159938293869e+01 0 0 -1
167 1 -1.4123460964540607e-01 1.7863459551733101e+01 2.3933755201413276e+00 8.7503918252434687e+00 0 0 0
252 1 -1.2456149625928500e-01 1.7031155834254697e+01 5.2851058008081235e+00 3.7593203750075666e+00 0 0 0
221 2 1.9109414478287376e-01 1.7275297318428990e+01 8.7993903511698726e+00 1.2837659614258579e+00 0 0 1
166 1 -1.2961060893108889e-01 1.8044425358180796e+01 2.0357400386539335e+00 3.6764110309680000e+00 0 0 0
171 1 -1.2540508311344720e-01 1.7223314220527485e+01 2.5835503667219482e+00 2.6392768220647187e+00 0 0 0
176 2 1.5913641669954640e-01 1.8772142647304381e+01 2.6343333360752581e+00 4.1643920222093920e+00 0 0 0
344 1 -1.0272163441119531e-01 1.9139658257195308e+01 5.5191297078070567e-01 1.2578635029757568e+00 0 0 1
313 4 2.8317991315619390e-01 1.9271736782998047e+01 -1.9811895086929283e-02 5.4336135794582203e+00 0 0 0
325 1 -3.1018185215952045e-02 1.7894704423051543e+01 7.2475383148086181e-01 4.1568499346768295e+00 0 0 0
315 1 -1.3084369777620020e-01 1.6959444937853590e+01 -9.0457468034468164e-02 3.4926010456795415e+00 0 0 0
255 2 1.7014151593819388e-01 1.9013164332829984e+01 6.0587884966037153e+00 3.5380670620097825e+00 0 0 0
330 1 -1.1464833757854344e-01 1.6088129620686324e+01 4.7857784137717380e-01 2.5307881057301818e+00 0 0 0
6 2 1.3985501752289495e-01 1.9520130114534105e+01 3.3704970063534718e+00 2.4016615171673221e+00 -1 0 0
281 2 1.8359232687568511e-01 1.7701446528467329e+01 8.3378509559100742e+00 4.3063061415366315e+00 0 0 0
276 2 2.0252560423112359e-01 1.6898344120525685e+01 8.9135059894588959e+00 7.9725404793429542e+00 0 0 0
247 1 -1.1296264183952505e-01 1.8391542771733487e+01 5.4445427879119599e+00 4.1259145004432822e+00 0 0 0
314 3 -4.3733314065905393e-01 2.0597965200862081e+01 1.3254347167089045e-01 4.8258263028643489e+00 0 0 0
352 1 -2.4106555699731552e-02 2.0603600277080698e+01 6.4909183115562277e+00 7.5341958728845606e+00 0 0 0
173 2 1.8786645773350352e-01 1.9162617990181253e+01 5.3092545908348692e+00 8.7609054265715525e+00 0 0 0
332 2 2.0257345392483483e-01 2.1299792911592846e+01 1.2251239047759630e+00 7.2375564296616668e+00 0 0 0
183 3 -4.0475652582289384e-01 1.5653996578264248e+01 -2.9210971084010645e-01 6.7948732915081251e+00 0 0 0
144 1 -1.1811913662713482e-01 1.7924026479285995e+01 1.5786426772950848e+00 7.5824038693616860e+00 0 0 0
146 2 1.8774873001303624e-01 1.7020851917365988e+01 1.3570397570001769e+00 7.0536981799710485e+00 0 0 0
338 2 1.6706729085707547e-01 1.8370557263215488e+01 5.1536278551080350e-01 1.9695141803990868e+00 0 0 1
324 1 2.8336408591450339e-03 1.9139632302138562e+01 1.0893633039653439e+00 7.0732485314836850e+00 0 0 0
261 3 -4.2645628917908335e-01 1.6810124502146355e+01 5.2179765501235780e+00 8.5682216886151323e+00 0 0 0
326 1 -6.7523232320572307e-02 2.0352998382772327e+01 1.4434372483057467e+00 7.6841730375485477e+00 0 0 0
274 1 2.0423468296815636e-01 1.5567417714922076e+01 8.0775137938754025e+00 4.0439196238906483e+00 0 0 0
163 1 -1.0652463080443401e-01 1.9828265360848341e+01 6.1510685290882234e+00 8.6415474936712542e+00 0 0 0
366 1 -9.8192147607423286e-02 2.0957420625219434e+01 7.4503876316836521e+00 1.8542408325252839e+00 0 0 1
142 3 -3.9857285684082866e-01 1.9039924783139316e+01 9.6212618647806085e+00 5.7029127972190379e+00 0 -1 0
362 2 2.0039681567346007e-01 2.0871259196159119e+01 8.6039457457000701e+00 3.6554747747321663e+00 0 0 1
180 2 1.3495860060847192e-01 1.7383769606910580e+01 3.5587313644382945e+00 2.3005607075007468e+00 0 0 0
258 2 1.5503716189933764e-01 1.6607141861138196e+01 5.8265391648545375e+00 2.9363646587042025e+00 0 0 0
259 4 2.9176376618439753e-01 1.5753765102481857e+01 6.2095776091478294e+00 8.4801322000090700e+00 0 0 0