LAMMPS data file via write_data, version 29 Oct 2020, timestep = 300012

384 atoms
4 atom types

2.667310689342581 21.54469131065484 xlo xhi
-0.7907466011556714 10.460746601156002 ylo yhi
0.007974494221369713 17.794026505780263 zlo zhi

Masses

1 12.0107
2 1.00794
3 15.9994
4 32.064999

Atoms # charge/kk

9 1 -9.8426960908311975e-02 7.1696886099819794e+00 8.4474421715540178e+00 9.5722240537948444e-01 0 0 0
2 1 -7.5448532763662132e-02 6.6552334242492801e+00 8.6480573632595137e-01 1.4732198987493854e+00 0 0 0
4 1 -1.7615790642945686e-01 6.0621437216302141e+00 3.6434570943039026e+00 1.4330408635957674e+00 0 0 0
69 2 1.8396455280025095e-01 6.5550950844510050e+00 1.5781034297307017e+00 4.4219313655165964e+00 0 0 0
42 2 2.1408398189275124e-01 7.6486367738771790e+00 5.2617740260293724e+00 7.7428456561782353e+00 0 0 0
37 3 -3.9186283876925387e-01 7.2215068131123994e+00 6.5177577957225310e+00 4.3213645814271606e+00 0 0 0
49 3 -4.7616761278079450e-01 4.6891611010887191e+00 3.4723415447402348e+00 3.5605421584215153e+00 0 0 0
116 2 2.1112634592060833e-01 3.8073431120738159e+00 8.6743136765949522e+00 7.6274296718484385e+00 0 0 0
56 1 -1.8987981093732115e-01 5.8324742833714067e+00 1.5272902527105550e+00 2.4179112483275764e+00 0 0 0
58 1 2.0214550652877716e-01 5.5264914019520806e+00 2.8987485598932645e+00 2.4983366577456452e+00 0 0 0
59 1 -1.0578461895793033e-01 3.6958602666460885e+00 2.8565870185481530e+00 5.7791840028511547e+00 0 0 0
60 1 -1.4698714737308147e-01 5.7273497329214988e+00 1.7548148130566072e+00 5.0529973535657424e+00 0 0 0
61 1 2.1815284419362399e-01 4.6763942530691684e+00 2.6660331109967901e+00 4.7777051775975963e+00 0 0 0
112 1 -1.4693074578639734e-01 4.6539956723549896e+00 7.4720888957445046e+00 4.1156182844952305e+00 0 0 0
66 2 1.8227847474986292e-01 5.4002493768608275e+00 9.5738067030989338e-01 3.1739664918418131e+00 0 0 0
120 2 2.0080298257619963e-01 3.6887303804204445e+00 1.0231482957082365e+01 5.7243591022729268e+00 0 0 0
45 2 1.7535615114425770e-01 8.2171729629894195e+00 4.8786732463687095e+00 2.0864142149936571e+00 0 0 0
157 4 2.8456465025517547e-01 8.4149523400330484e+00 5.8913838032884671e+00 4.8943452732412345e+00 0 0 0
335 2 1.5107625949966380e-01 3.6513151625854343e+00 1.4350316913306400e+00 1.7362694881091818e+00 1 0 0
316 2 2.0684233914550074e-01 2.7993384346411680e+00 -3.0172121565988236e-01 3.1983560488992886e+00 1 0 0
7 2 1.5400053130013530e-01 5.9294623336766392e+00 4.6864751301788390e+00 1.4649708709579650e+00 0 0 0
121 2 1.6513458076915796e-01 4.7725560246517134e+00 7.1104862409168410e+00 3.1562114223582829e+00 0 0 0
118 2 2.0425402014806560e-01 6.5290565506731300e+00 8.3095301746598267e+00 2.9709005649496865e+00 0 0 0
11 1 -2.0405979363480556e-01 4.9068213296016099e+00 1.0109389016286251e+01 6.8855954125437080e-01 0 0 0
43 2 2.0284999143147750e-01 7.9436160663993238e+00 2.9544493069957660e+00 3.5981154324626718e+00 0 0 0
107 1 -3.7791339654258599e-02 4.5887139178146654e+00 6.5218611866272633e+00 5.1727218189514232e+00 0 0 0
29 3 -4.0349807153657186e-01 8.2002867723550530e+00 -4.7711806589200384e-01 3.9832313901576875e+00 0 0 0
99 3 -4.1884854900218532e-01 3.0629005802409286e+00 4.6749031268482950e+00 7.7483608791742373e+00 0 0 0
3 1 -1.0498510906868425e-01 6.8528960584735996e+00 3.0080517637026931e+00 4.3803606576685794e-01 0 0 0
117 2 2.1972997395821645e-01 4.6997265660604945e+00 5.4826178126419780e+00 4.9735244325606649e+00 0 0 0
101 3 -5.4101393984544510e-01 4.2449601949160156e+00 9.7670067246402184e+00 3.1151499198989159e+00 0 0 0
108 1 -1.6776158870617106e-01 6.2923692646759450e+00 8.7263999605591902e+00 2.0354702794979298e+00 0 0 0
110 1 1.9265455869371087e-01 5.1533323767460084e+00 9.5581685532839789e+00 1.9690717255195356e+00 0 0 0
159 3 -4.0469715498620012e-01 8.2136199281297753e+00 4.4463433006663005e+00 5.0405249029155978e+00 0 0 0
113 1 2.1245960534677963e-01 4.3193735055900904e+00 8.8267913756638503e+00 4.2557469409783737e+00 0 0 0
111 1 -1.0729720789850263e-01 4.0165991458042196e+00 9.2497614841698574e+00 5.5654732765558892e+00 0 0 0
1 1 -1.0061746800345699e-01 7.1564076953105280e+00 1.6163784168181712e+00 3.8413387956324874e-01 0 0 0
362 2 1.4552926128296215e-01 4.3894443434692176e+00 7.9161127644096165e+00 4.9563842207071318e-01 1 0 1
225 2 1.3072779094397485e-01 3.3023137832908693e+00 5.7545577078608394e+00 9.8686886233931403e-01 1 0 1
5 2 1.9288977455038384e-01 6.9179454908396423e+00 -1.4664753510841896e-01 1.6480718137506987e+00 0 0 0
98 4 2.8612586939592255e-01 4.2181260555658859e+00 5.5789209539162492e+00 7.8970205459768117e+00 0 0 0
65 2 1.8322292557714476e-01 6.6240514576607019e+00 3.7158464050304751e-01 6.4107859872146742e+00 0 0 0
55 1 -7.8868223393525491e-02 5.7979227048339155e+00 9.8817604143465088e-01 6.2353920531358105e+00 0 0 0
12 2 1.7688062228622706e-01 7.9941105412852336e+00 7.7808575119579935e+00 1.0797149245505198e+00 0 0 0
100 3 -3.8652766080255696e-01 5.4462094611343312e+00 4.7957330446840905e+00 8.0074759130034412e+00 0 0 0
68 2 2.3461503908619535e-01 2.7826297375461619e+00 3.3806224249321288e+00 5.5281805909800035e+00 0 0 0
38 1 -8.3519164014958305e-02 8.2791232503441101e+00 6.1442759083677023e+00 7.8386863362035806e+00 0 0 0
106 1 -8.2902893362258465e-02 4.0468779649824560e+00 8.3388375845009861e+00 6.6585276910014519e+00 0 0 0
103 1 -1.6306675581781168e-02 4.3423511382771558e+00 6.9825645235599074e+00 6.4664816106999377e+00 0 0 0
51 1 -1.3715302763688477e-02 4.7693567149805327e+00 1.1087306853108263e+00 7.1787744258211115e+00 0 0 0
14 2 1.3428257131646462e-01 4.0052657990434195e+00 -6.1499411397660941e-01 5.7461454936561485e-01 0 1 0
54 1 -6.6463276246282080e-02 3.7764271427958218e+00 2.0717372120934034e+00 6.9723430693386783e+00 0 0 0
31 2 1.7691023185251900e-01 8.6247792275449022e+00 -7.3042050542585668e-01 6.9737351042901370e+00 0 0 0
40 1 -1.4678457265451486e-01 8.8362269233163460e+00 8.3211142950411709e-01 8.4243613423304833e+00 0 0 0
39 1 -7.7114452734095146e-02 8.7646236726424362e+00 2.9751044139681260e+00 2.9479771681340701e+00 0 0 0
30 1 -9.6289309202877649e-02 8.9030184196278217e+00 2.6068014509956300e-01 7.1632576667483034e+00 0 0 0
41 1 -8.8593106757062973e-02 8.8368230047585303e+00 4.0166411362551120e+00 2.0249014405356522e+00 0 0 0
64 2 1.9216778898446751e-01 3.0404945966157810e+00 2.2084294277097345e+00 7.7137712697185243e+00 0 0 0
244 1 6.9778204841082474e-03 8.8798734424885044e+00 6.7053399660276929e+00 6.6967825857083829e+00 0 0 0
46 4 2.8361464529175134e-01 4.8553120225757560e+00 8.2758321976869539e-02 8.8675921783969347e+00 0 0 0
330 1 -1.0754253553333785e-01 2.7228669913225003e+00 1.5057887030562738e+00 2.2062756711466762e+00 1 0 0
288 1 -1.1850757804168249e-01 2.7719568926307825e+00 6.4538472943513323e+00 3.4059999792186541e-01 1 0 1
367 1 -1.2187192496836573e-01 3.4637487994486547e+00 7.6575038011931715e+00 9.7126004371013153e-03 1 0 1
78 2 1.5316730802772713e-01 8.5062446523630353e+00 3.7823747205536322e+00 1.2342514561383902e+01 0 0 0
50 1 -2.5055838268719564e-03 4.4369417913451876e+00 1.5157149149126297e+00 1.0184231237447751e+01 0 0 0
53 1 -7.6597092138510084e-02 5.1390032685638181e+00 2.7289889257542836e+00 1.0235467524490115e+01 0 0 0
338 2 1.3865686307406011e-01 4.9882031748720834e+00 3.6683832350549155e+00 1.6838437920850200e+01 1 0 0
79 3 -4.8160219887026351e-01 3.3284041414611840e+00 4.6297752437123796e+00 1.3023277079766777e+01 0 0 0
92 2 1.8986400056818717e-01 3.3042797353093341e+00 6.8519694230016190e+00 1.4353951731633249e+01 0 0 0
132 1 2.2246230513188758e-01 3.5672969016002032e+00 8.2943256824259866e+00 1.1783085348194975e+01 0 0 0
119 2 1.8337882156409463e-01 5.5069255721724923e+00 9.0970226513201133e+00 1.1374008486329407e+01 0 0 0
57 1 -1.5474255664301290e-01 4.8072731098707493e+00 3.6375214697996938e+00 1.1282695248192667e+01 0 0 0
156 2 1.3421448868856387e-01 4.5696519809767002e+00 1.2232126019356266e+00 1.7427100056738503e+01 1 0 0
215 1 -1.3037381376372206e-01 3.7892831630747694e+00 1.8022533064093946e+00 1.6964105689301764e+01 1 0 0
139 2 1.6271336117735352e-01 5.9307797582834620e+00 8.6163472456093952e+00 1.3468547060076279e+01 0 0 0
105 1 -8.9419918278016847e-02 4.9612092328977990e+00 7.6421495435872862e+00 9.8241492373752468e+00 0 0 0
109 1 -1.2843988038287141e-01 4.7439517018454653e+00 8.4264051775867568e+00 1.1015808913671618e+01 0 0 0
47 3 -3.9833404083896035e-01 3.7836888919966452e+00 1.0333317521303496e+01 8.9449533495452371e+00 0 -1 0
67 2 1.6990430169517198e-01 5.3439937202360097e+00 4.5299752687568242e+00 1.1394673286641506e+01 0 0 0
366 1 -1.3275178109602725e-01 2.9830366497144913e+00 8.4556283414368121e+00 1.6731442440832257e+01 1 0 0
10 1 -1.3602500491980341e-01 5.8660743994817404e+00 1.0038950292129510e+01 1.7426948556195637e+01 0 0 -1
6 2 1.7396740578220138e-01 7.3422577690446040e+00 3.6532586329436834e+00 1.7570445289003466e+01 0 0 -1
102 1 -1.0525801343797216e-02 3.9538467333529210e+00 6.7343960613594547e+00 9.4445656564373373e+00 0 0 0
80 1 -1.0587494452937755e-01 6.5411999815484521e+00 6.5107738219955182e+00 1.5345344519998260e+01 0 0 0
81 1 -9.1527726037654342e-02 6.7148857628502583e+00 5.2653215869246814e+00 1.4679321245754027e+01 0 0 0
82 1 -1.2594926434464843e-01 5.2969848390342200e+00 7.1550110996108947e+00 1.5173724701877745e+01 0 0 0
85 1 -1.9950967083534049e-01 5.7194278142657193e+00 4.6667653321926590e+00 1.3872795351680756e+01 0 0 0
86 1 -1.4153802559342601e-01 4.3049580267245240e+00 6.4858937210020322e+00 1.4403448016735595e+01 0 0 0
87 1 2.0083019327735066e-01 4.4488961966788549e+00 5.2617964786137339e+00 1.3709465914102017e+01 0 0 0
88 2 1.8081742956867883e-01 7.6026045056753775e+00 4.7161514743978348e+00 1.4826899090327325e+01 0 0 0
89 2 1.4196570315095161e-01 5.1421581189500740e+00 8.1155891585215709e+00 1.5625168224886311e+01 0 0 0
373 2 1.4851950925329194e-01 6.8546109968181197e+00 1.3634766769022484e+00 1.4799289325627413e+01 0 1 0
343 1 -1.0336342062404473e-01 3.0882973199314283e+00 3.9156213465775775e+00 1.5976970018235376e+01 1 0 0
84 1 1.9987904168212511e-01 3.7184051946696255e+00 3.4842803787661314e+00 1.2164697605603795e+01 0 0 0
115 2 1.8205319435711564e-01 5.8297662357196449e+00 7.7709203949478169e+00 9.2346768321059969e+00 0 0 0
62 2 1.8235313877173967e-01 3.0017311233666786e+00 3.4065504598905411e-01 1.1110247873170691e+01 0 0 0
13 2 1.4172370558392144e-01 5.6987559948277235e+00 -6.8470888224995863e-01 1.6544168772713430e+01 0 1 -1
48 3 -3.9947787236209653e-01 6.1591939192660350e+00 -4.8230460577546613e-01 9.1872543567136642e+00 0 0 0
374 2 1.8846220976993780e-01 7.3012186775464629e+00 6.9503663128022275e+00 1.5998548386189070e+01 0 0 0
344 1 -1.2435059068611011e-01 4.0788207082245469e+00 3.1563287021578663e+00 1.6623945994873612e+01 1 0 0
371 2 1.3216012690033030e-01 3.5979933492781351e+00 9.2767201274897140e+00 1.6476727603501100e+01 1 0 0
44 2 1.6238404663211273e-01 7.8674447718716527e+00 6.4153406801885469e+00 9.9460125920438855e+00 0 0 0
32 2 2.0287809485190544e-01 8.4157143236045169e+00 2.5274540420205177e-01 9.1943545768402863e+00 0 0 0
128 1 -1.2097430036321249e-01 6.1686468925824052e+00 6.1538123826160362e-01 1.4476362652702234e+01 0 1 0
129 1 -1.1200026879448635e-01 6.5352914796548687e+00 -7.3389071281380136e-01 1.4270683012734546e+01 0 1 0
130 1 -1.1065622595515297e-01 4.8045887555306477e+00 9.2405985962870163e-01 1.4288534370536123e+01 0 1 0
133 1 -1.8975540806944363e-01 5.5958787358483519e+00 9.5664490948465808e+00 1.3755449063556062e+01 0 0 0
134 1 -1.5346397064114847e-01 3.8576765590155815e+00 -4.4127594372164493e-02 1.3906214732849076e+01 0 1 0
135 1 2.0478389089744761e-01 4.2515196041804613e+00 9.8844704216185715e+00 1.3571152186311652e+01 0 0 0
136 2 1.5865934163721326e-01 7.5781642453709068e+00 1.0290221370972713e+01 1.4386393909185719e+01 0 0 0
137 2 1.5423736619320805e-01 4.5203281436495812e+00 1.9266933953957581e+00 1.4307201387021111e+01 0 1 0
127 3 -4.8362182730849257e-01 3.1938242136457968e+00 9.0203049027794719e+00 1.2999984033393980e+01 0 0 0
104 1 -1.0337833647442185e-01 2.8439500428692637e+00 6.4426203007457650e+00 1.0249776999202060e+01 0 0 0
375 2 2.1686814042463823e-01 7.8514141124839254e+00 1.1555297273885614e+00 1.7445810594421630e+01 0 0 -1
378 2 1.6084545051840363e-01 7.6612886068219943e+00 9.0738740591648561e+00 1.6814444803199212e+01 0 0 -1
91 2 1.4281834775714053e-01 5.8321874568015604e+00 3.6812571315643936e+00 1.3473885910934815e+01 0 0 0
94 1 -1.7229004437154863e-01 8.3928606637641572e+00 6.8128179074390136e+00 9.1131873007706048e+00 0 0 0
125 2 1.7076691604430891e-01 8.5571718676628770e+00 8.5652365257315797e+00 1.5021844486995510e+01 0 0 0
63 2 2.0115138918945130e-01 5.8981291711607797e+00 2.9551398940038927e+00 9.5150977978000117e+00 0 0 0
83 1 -1.5870863717480393e-01 3.0006226742090507e+00 2.2867945293103453e+00 1.2050410020857832e+01 0 0 0
8 1 -1.1119028114673056e-01 6.9555277380917246e+00 9.1849871202629032e+00 1.7565401619739468e+01 0 0 -1
349 2 1.6495811142641306e-01 3.1768061436851349e+00 4.9408824453635143e+00 1.5782788181972213e+01 1 0 0
124 1 -1.5343938859664535e-01 8.6500490337854536e+00 8.6934462217499053e+00 1.2872670848629989e+01 0 0 0
52 1 -9.4057900342714607e-02 3.4154226112878661e+00 1.2956494731248793e+00 1.1110187514885267e+01 0 0 0
140 2 1.7060500757529085e-01 2.8388236211275242e+00 1.8131966708560474e-01 1.3934863807800925e+01 0 1 0
122 1 -1.0163401166161033e-01 8.7040537101205153e+00 8.0575491149864362e+00 1.4115868530691106e+01 0 0 0
126 2 1.7109823189235510e-01 8.3018276031400262e+00 9.6680504619554455e+00 1.2751424784160672e+01 0 0 0
70 3 -4.6535909787263241e-01 8.7527667738427279e+00 6.3289718746732131e+00 1.7013167309035822e+01 0 0 0
204 2 1.6503287603844793e-01 1.1928979103112860e+01 2.0650047017898987e+00 3.8882377422668122e+00 0 0 0
256 2 2.0482052456024535e-01 1.0585423736828979e+01 9.2191039800772590e+00 8.2170578380195174e+00 0 0 0
267 1 -9.8468974198641576e-02 1.4696500970737137e+01 6.5746162903131840e+00 4.3853910392221502e+00 0 0 0
186 1 3.3762278106180062e-03 1.3906492933707856e+01 6.6445305802802068e-01 6.2244672351924182e+00 0 0 0
183 3 -4.1940156679363849e-01 1.4936249604948186e+01 9.8201515787441451e+00 7.7700728375401065e+00 0 -1 0
161 1 -3.0458750711105029e-02 9.3585608345532041e+00 9.9989973512797992e-01 6.0584540380255323e+00 0 0 0
147 2 1.6579565220638973e-01 1.1412911284496573e+01 1.0860327352035688e+00 1.9055300632534034e+00 0 0 0
272 1 -1.8032371474328343e-01 1.4795472981853186e+01 7.5209083359334530e+00 3.3261756422797193e+00 0 0 0
260 3 -3.9170908327069559e-01 1.2097047761536793e+01 4.6802757840089759e+00 6.7773665403258079e+00 0 0 0
175 2 1.7062823917307351e-01 1.0963143784938870e+01 4.2980222645595960e+00 4.1475366590706448e+00 0 0 0
245 1 -1.3629234030159650e-02 1.0025290164523836e+01 6.2509445651005082e+00 3.8197014069199207e+00 0 0 0
162 1 -3.4789177078500599e-02 9.6451489746343793e+00 1.8639943502590863e+00 2.9334540582020812e+00 0 0 0
165 1 -8.5529387756116751e-02 1.0981881549361118e+01 5.2318610642601699e+00 3.6289322080744575e+00 0 0 0
145 1 -9.8685054763600275e-02 1.0655011323066059e+01 1.8555027603533645e+00 1.9461811440980064e+00 0 0 0
93 1 -1.0661370540569086e-01 1.0108267069227665e+01 7.4338040860801371e+00 3.0782981856384390e+00 0 0 0
95 1 -7.8457573588285548e-02 1.1192514611279552e+01 7.5663019084883576e+00 2.1538699622700830e+00 0 0 0
141 4 2.7992398714408989e-01 9.4580465294030933e+00 2.3262690169384126e-01 4.2327476077013833e+00 0 0 0
172 1 -7.9358561235613967e-02 9.8732446507374494e+00 3.9633255862015382e+00 1.0723715371543214e+00 0 0 0
174 2 1.7294891363118739e-01 1.0095356817179205e+01 2.8708786551418060e+00 5.4019876791374148e+00 0 0 0
251 1 -1.0039278219204796e-01 1.2074888104604886e+01 5.4215820931300351e+00 2.7462524371561106e+00 0 0 0
282 2 2.3103926351071927e-01 1.2130330956198677e+01 9.5745777897250903e+00 4.1012787179802883e+00 0 0 0
253 1 -1.1021204890395811e-01 1.2171356206373936e+01 6.5838142298748368e+00 1.9433025403636652e+00 0 0 0
200 2 1.8925558401409151e-01 1.1813012505047801e+01 7.5718471561982259e-01 5.9066341701859590e+00 0 0 0
249 1 -1.6408985129237350e-01 9.9183316100591856e+00 8.4097363199360906e+00 8.0852634471809353e+00 0 0 0
181 4 2.8916220492449352e-01 1.3784636552863162e+01 -5.2452739003156867e-01 7.8007833229731194e+00 0 0 0
179 2 1.6554782860928105e-01 1.1504284177394013e+01 2.8578306788813563e+00 1.7487173063188041e-01 0 0 0
164 1 -9.0389512766020405e-02 9.7112976525223971e+00 2.3407023996555436e+00 6.2136310141335196e+00 0 0 0
261 3 -3.6560916397532678e-01 1.4435022130476892e+01 4.3301102648605481e+00 6.8952422564068661e+00 0 0 0
97 2 1.7604951819032055e-01 1.1306516748774190e+01 8.4521945859341141e+00 1.6388266457493199e+00 0 0 0
168 1 -1.0085131170287949e-01 9.5906779198430190e+00 2.9674646954753832e+00 7.4968735080172095e+00 0 0 0
278 2 1.7477369819704919e-01 1.2034397416499997e+01 7.8933028346349952e+00 5.9926364049252570e+00 0 0 0
182 3 -4.1448830169427148e-01 1.2525956564395525e+01 9.9620299951504681e+00 7.7985231645890432e+00 0 -1 0
254 2 1.6863325154197614e-01 1.0268747169249886e+01 8.1865181304902830e+00 5.9999884174331344e+00 0 0 0
190 1 -7.4421996615584018e-02 1.2760629824994616e+01 9.8726463889368143e-01 5.4927354193868210e+00 0 0 0
170 1 -9.1637861309185817e-02 1.0734409793652611e+01 2.8563508446700761e+00 9.3437469391984951e-01 0 0 0
184 3 -5.2969455394756726e-01 1.4100133797400867e+01 3.2741404783141799e+00 2.7689829082236352e+00 0 0 0
275 2 1.7740292907374758e-01 1.1287194337544745e+01 6.7994717755837124e+00 8.4117513733377578e+00 0 0 0
189 1 -7.6411867745226431e-02 1.5110173994392740e+01 1.2793912202148443e+00 5.8474984562828833e+00 0 0 0
196 1 2.2845569688333991e-01 1.4104410125916786e+01 2.3266811112102821e+00 3.8847672209865749e+00 0 0 0
268 1 -8.6980106552669842e-02 1.2794535104722280e+01 7.8071254014799685e+00 5.2687938009635680e+00 0 0 0
143 3 -4.4514423943921494e-01 1.0560172923712061e+01 -7.1650246431985498e-01 4.1735879707415826e+00 0 0 0
383 2 1.5310870645472763e-01 1.2971848163518592e+01 6.7735769939968407e+00 1.2485960325902428e+00 0 0 0
263 1 7.6469287266896441e-03 1.3375429767977774e+01 6.5485157994282863e+00 8.5346225212759848e+00 0 0 0
262 3 -5.0233229544273372e-01 1.3727259249053878e+01 9.5177673152237521e+00 2.0695154593367144e+00 0 0 0
194 1 -1.3624167254788222e-01 1.5238671289704016e+01 2.0823726010296926e+00 4.6762507487793608e+00 0 0 0
273 1 -1.1073333059238658e-01 1.2884290481739564e+01 8.7549021688195072e+00 4.2078877347039736e+00 0 0 0
271 1 2.0063860738207140e-01 1.5009892521717832e+01 9.8133666315860655e+00 1.4699440492997387e+00 0 0 0
178 2 2.0765025689908781e-01 9.9723530278131616e+00 3.9359217100494170e+00 7.6620453238399220e+00 0 0 0
274 1 2.0379281752509409e-01 1.3871856922773892e+01 8.5799755252929923e+00 3.2125090019950684e+00 0 0 0
195 1 -1.4272907353101497e-01 1.2859069501606932e+01 1.8300248092540230e+00 4.3504259663294658e+00 0 0 0
259 4 2.7958139093259277e-01 1.3393389003179655e+01 5.3567314993413788e+00 6.8860588094118409e+00 0 0 0
257 2 2.0263399086190559e-01 1.2857441619637889e+01 4.6959822120462116e+00 2.7121251777836450e+00 0 0 0
198 2 1.9200793332211899e-01 1.4634588470681052e+01 2.4248145953219336e+00 8.3936742212110360e+00 0 0 0
264 1 8.2726400603572135e-03 1.3688424561601813e+01 6.7390655254902878e+00 5.3432361609055326e+00 0 0 0
169 1 2.0035396433633751e-01 9.2147495764677601e+00 2.2093057534571936e+00 8.6304441555600118e+00 0 0 0
246 1 -1.1851268315708656e-01 9.7517313677370705e+00 7.8074931423145273e+00 6.8395358359087810e+00 0 0 0
384 2 1.9713994892712780e-01 1.0028424012031467e+01 4.8089380951956233e+00 4.6750315943715010e-01 0 0 0
36 2 1.6567302773716927e-01 1.4046511484260719e+01 9.6850712152284668e-01 9.0951146382848358e-01 0 0 1
269 1 -1.9062941190678903e-01 1.5103484602089582e+01 1.0037064654506135e+01 9.5675532287384152e-02 0 0 0
21 2 1.4360936586653938e-01 1.5013934370622414e+01 5.1822322007132833e+00 1.1815861753015600e+00 0 0 0
96 2 1.9072841774973970e-01 9.3562484021279477e+00 8.1698241379613918e+00 3.1974252428859189e+00 0 0 0
291 1 -1.8142681281538520e-01 9.4858452124843353e+00 6.6907547276132222e+00 1.1755910084263780e+01 0 0 0
202 2 1.7715072190946668e-01 1.3916755983904531e+01 3.9642897132147086e+00 1.0137901565603153e+01 0 0 0
250 1 1.9308281436949420e-01 9.2018433759107534e+00 7.9598802486239846e+00 9.2095767121470846e+00 0 0 0
266 1 -8.5684087376393714e-02 1.4558799660176440e+01 6.9311901784173440e+00 9.2163455461423371e+00 0 0 0
160 3 -4.7965306850820161e-01 9.0965152790106956e+00 2.9947396633043346e+00 9.8914424743219787e+00 0 0 0
299 3 -5.3847270783692591e-01 1.2986916607282968e+01 9.2515662699551324e+00 1.1924033876107146e+01 0 0 0
241 2 1.5477026143137446e-01 1.4933146170373277e+01 3.2512816638782587e+00 1.3048250483558578e+01 0 0 0
310 2 2.0484268391433494e-01 1.1242253251675294e+01 8.4198376305337490e+00 1.0384094070885304e+01 0 0 0
217 1 -1.1685826222261374e-01 1.4318400680860442e+01 2.2187631403247101e+00 1.7045844998475488e+01 0 0 0
197 2 2.0974410613164268e-01 1.2813047685153167e+01 -7.3285561661182907e-01 1.0466595176032648e+01 0 0 0
294 2 2.0580031965764045e-01 1.1414366337321596e+01 8.4396609519859993e+00 1.5741961452380712e+01 0 0 0
227 2 1.7892915438833834e-01 1.0277356385529032e+01 3.8592335361685809e-01 1.0359115113978453e+01 0 0 0
226 2 1.5351368142333352e-01 1.4324263521414489e+01 3.3715231185031977e+00 1.5306104012265797e+01 0 0 0
149 4 2.8512258697536469e-01 1.0209983302015534e+01 2.0308729566953002e-01 1.5380501162583846e+01 0 0 0
72 1 -1.0340830483649197e-01 9.3040301295086465e+00 2.3186052985669741e+00 1.3568542924503015e+01 0 0 0
213 1 -1.2081363746484350e-01 9.5569531523372682e+00 6.0543473849813632e+00 1.3025567932153519e+01 0 0 0
210 1 -1.9844642899507704e-02 9.8555746375419400e+00 1.0254405343083992e+00 1.3625215043030883e+01 0 0 0
153 1 -1.1287395009366089e-01 1.0142129448028262e+01 3.0339869109084583e-01 1.2465962420591909e+01 0 0 0
279 2 1.4333638137651084e-01 1.4234281242064673e+01 9.9636226104858210e+00 1.7233720564044027e+01 0 0 -1
223 2 1.6817913364647674e-01 9.9281647215417461e+00 5.0688233829957046e+00 1.3055602730409444e+01 0 0 0
71 1 -1.0929690737771802e-01 1.2649539463188200e+01 5.4346912396238345e+00 1.6398624256812163e+01 0 0 0
155 2 1.8539538388829452e-01 1.0589283460191991e+01 -6.6354647474263218e-01 1.2515938748991633e+01 0 0 0
151 3 -4.5060839279202458e-01 1.0349467711080278e+01 9.9916799327011017e+00 1.5266692324990448e+01 0 -1 0
205 4 2.6878057937259708e-01 9.6302985634675284e+00 5.7904233026892111e+00 1.5948911237949106e+01 0 0 0
265 1 -9.5738376184648769e-02 1.2134394325600944e+01 6.9901547599447467e+00 9.0122023111520448e+00 0 0 0
284 1 -9.9236396954021644e-03 1.1636574682070878e+01 6.3557890442623357e+00 1.6097395806720741e+01 0 0 0
286 1 -9.7958355979028355e-02 1.2108183282468971e+01 7.6669254379901988e+00 1.5951646169313182e+01 0 0 0
222 2 1.9391769447375010e-01 1.2216570025372627e+01 2.3803904394540201e+00 1.4345673415931353e+01 0 0 0
75 2 1.6325031691791039e-01 1.2428361957612676e+01 4.4205090173692465e+00 1.6375331068070647e+01 0 0 0
209 1 -1.2823582800319422e-02 1.1910918020540134e+01 1.0720398388217316e+00 1.6048808926565673e+01 0 0 0
240 2 1.7919674274381003e-01 1.2224144085568696e+01 8.4141964723684348e-01 1.2363155888243178e+01 0 0 0
290 1 -8.4164793146656980e-02 1.4414751340456366e+01 7.1349503838679782e+00 1.6623552193257328e+01 0 0 0
192 1 -1.5093280073519091e-01 1.3715836512283172e+01 2.9557458290494170e+00 1.0300373381047287e+01 0 0 0
307 1 1.9509641232470445e-01 1.4120917996903211e+01 1.0038118998005237e+01 1.2493149182861652e+01 0 0 0
303 1 -1.3114401856690985e-01 1.2150436741099540e+01 7.8861184715342549e+00 1.0101823204839951e+01 0 0 0
185 1 -2.3994567314165511e-02 1.3656426230914775e+01 7.6323695940142378e-01 9.2914502814996727e+00 0 0 0
230 1 -9.8221247153110272e-02 1.5048234788714517e+01 6.6434510738498522e+00 1.3713259048184147e+01 0 0 0
304 1 2.0130344002736522e-01 1.3303898128365391e+01 8.3500250235066957e+00 1.0783054745954560e+01 0 0 0
289 1 -1.3532751694419273e-01 1.3431966463563612e+01 8.0899943237863035e+00 1.6269257577283934e+01 0 0 0
239 2 1.9444014870188930e-01 1.3313795734510084e+01 7.9517106812939247e+00 1.3369718689633908e+01 0 0 0
207 3 -4.5069933761567510e-01 9.3617591854090865e+00 4.3326550363393066e+00 1.5876619741404214e+01 0 0 0
233 1 -1.3694978102817909e-01 1.2699072340855896e+01 1.2043665199814100e+00 1.1501525848940464e+01 0 0 0
77 2 1.4491135723598916e-01 1.4679441529240858e+01 4.9960660736880866e+00 1.6810812498256528e+01 0 0 0
234 1 2.0674928678843313e-01 1.2980215435010324e+01 2.5830465823068214e+00 1.1438600916366081e+01 0 0 0
293 1 2.0752537768794346e-01 9.0492965795691997e+00 8.0343776496644832e+00 1.1681499752066893e+01 0 0 0
187 1 -8.4731720184228421e-02 1.3023692338703954e+01 3.0815772706430589e-01 1.0446501004864389e+01 0 0 0
308 2 1.5110832373037358e-01 1.4558968585804683e+01 6.9762541739930781e-02 1.5665158873066854e+01 0 1 0
237 1 2.1518964540620097e-01 1.3320335451589488e+01 4.5696632319191437e+00 1.2801905038191800e+01 0 0 0
242 2 1.7613839748517970e-01 1.1899794844065925e+01 6.1288320037365809e+00 1.2594481792867958e+01 0 0 0
218 1 -1.5254165309460732e-01 9.9379224717814107e+00 9.0974122499893084e-01 1.1200492059830017e+01 0 0 0
229 3 -4.9147972459057115e-01 1.2411865083321954e+01 3.4567544369466363e+00 1.2480511842611024e+01 0 0 0
285 1 -2.1460552942892820e-02 9.2052545056150965e+00 6.7446829943527078e+00 1.4193237736717169e+01 0 0 0
236 1 -1.4178885306677322e-01 1.2877184238989605e+01 5.9038660044658942e+00 1.2904795502548374e+01 0 0 0
34 1 -1.3188327570289643e-01 1.2459052427446441e+01 6.2483714230365295e-01 1.7258869489000233e+01 0 0 0
305 1 -1.6044069591323495e-01 1.3936003941771377e+01 1.0316511131726040e+01 1.3861131076979037e+01 0 0 0
296 2 1.2939376588398852e-01 1.3700415087734594e+01 9.1185929791085965e+00 1.6186902229213921e+01 0 0 0
74 1 -1.3990151901099807e-01 9.0760763318538800e+00 2.8807949126051744e+00 1.2294718071600569e+01 0 0 0
212 1 -1.1343883171569959e-01 1.2588460859424114e+01 2.0489011016527612e+00 1.5290651387958906e+01 0 0 0
232 1 -7.7914089675299517e-02 1.3735975154058055e+01 6.9462111612950679e+00 1.3317423728269093e+01 0 0 0
123 1 -1.2697675621676627e-01 1.4001985885596810e+01 5.7789533809777556e+00 1.6650692837068000e+01 0 0 0
216 1 -1.2623038460741295e-01 1.3806734638970765e+01 2.5966757444256725e+00 1.5783257249603455e+01 0 0 0
270 1 -1.5596773318772861e-01 1.4517158293003801e+01 7.8052490698757104e+00 1.0340722198845457e+01 0 0 0
311 2 1.6625708777423553e-01 1.3024753721784165e+01 1.0056078182838743e+01 1.4330783994479839e+01 0 0 0
235 1 -1.9176129259960173e-01 1.4612322391250393e+01 4.2250680499848441e+00 1.3193374567617838e+01 0 0 0
297 2 1.6209187769741784e-01 9.9482613138177953e+00 6.2623541663024751e+00 1.0889467925907438e+01 0 0 0
243 3 -5.0663136415268117e-01 9.2420275990117773e+00 8.7852065956587602e+00 1.0434145012853332e+01 0 0 0
208 2 1.7196921624507547e-01 1.5147019111736892e+01 2.6904307809056256e+00 1.7502772123721137e+01 0 0 0
301 1 -1.2637808817951413e-01 1.4843136441439366e+01 -1.7591526894962448e-01 1.4646270590997908e+01 0 1 0
76 2 1.9558825366836624e-01 9.1055368189754766e+00 2.8691349839618336e+00 1.4473146539017609e+01 0 0 0
188 1 -9.2378132940005173e-02 1.4107191849776591e+01 2.0824024619656476e+00 9.2384635089803897e+00 0 0 0
220 1 2.3734907607836636e-01 9.4120146934907556e+00 2.2165791398591330e+00 1.1070421581050148e+01 0 0 0
33 3 -4.3450817002033421e-01 9.0806123774431491e+00 5.0728408955658599e-01 1.6275316308354586e+01 0 0 0
73 1 -1.1750237743354203e-01 1.3651247418660729e+01 1.2149586597184880e+00 1.7765668142314130e+01 0 0 0
306 1 -1.7386340793861507e-01 1.5246126531840201e+01 -6.5940146355577467e-01 1.1892612024630651e+01 0 1 0
35 2 1.6724282848185090e-01 1.1993078877601612e+01 -1.5730546079795846e-01 1.7772824541178267e+01 0 0 0
16 1 -8.2218558946783760e-02 1.7134341550159839e+01 2.0599010787648337e+00 7.5139400369613696e-01 0 0 0
356 1 1.9929760602294788e-01 1.8283412546432711e+01 8.2558899261327579e+00 8.4834167757998671e+00 0 0 0
18 1 -1.9150112936224073e-01 1.5634704032559837e+01 4.3440306363040744e+00 1.1717743052361012e+00 0 0 0
381 2 1.5343464218544264e-01 1.9746445357288355e+01 8.7375558945432292e+00 4.0799851703009526e-01 0 0 0
158 3 -4.3615262712351943e-01 1.7646030096934211e+01 4.1845913216455530e+00 4.6885304034732602e+00 0 0 0
166 1 -1.0488152774426723e-01 1.9048270439291613e+01 1.8147152963341118e+00 3.3992387116118765e+00 0 0 0
171 1 -7.5867505053477655e-02 1.9592359817606244e+01 2.8738605507024872e+00 2.6214016595865344e+00 0 0 0
176 2 1.8096322442524243e-01 1.8152185486497682e+01 1.9949347185518203e+00 3.9079033086107140e+00 0 0 0
180 2 1.7401493663597903e-01 1.9086658155089602e+01 3.7933096507582844e+00 2.5936196099134738e+00 0 0 0
333 2 1.9853834447216046e-01 2.0585016878065854e+01 7.3935273115126066e+00 4.3010569583919356e+00 0 0 0
201 2 1.6444974617199226e-01 1.5897464009370196e+01 1.1721662359280425e+00 2.3244513430019209e+00 0 0 0
327 1 -6.8972916506500906e-02 2.0032342629596062e+01 7.2821016271165773e+00 3.4162245136581668e+00 0 0 0
358 1 -9.7633334510676795e-02 1.9434427329671475e+01 8.1103163854360343e+00 1.2222028690778777e+00 0 0 0
163 1 -6.5277635420252250e-02 1.7412220134199842e+01 7.1662463371332548e+00 6.4050118494040085e+00 0 0 0
19 2 1.8584008174073341e-01 1.7690782764986178e+01 1.1974702826316828e+00 5.4106285550688826e-01 0 0 0
313 4 2.7397804777627266e-01 1.9195944813129589e+01 -7.5231387373928293e-01 4.8971799322826257e+00 0 0 0
17 1 -1.3643028766402071e-01 1.6669827628269612e+01 4.4152191245278569e+00 2.1288239943678794e-01 0 0 0
334 2 2.2028093652508587e-01 1.9461436231746720e+01 3.8870865615935366e+00 7.0289261357040482e+00 0 0 0
325 1 -3.7912343450728553e-02 1.9800364780627834e+01 6.4555175672601106e-01 3.6166349254800654e+00 0 0 0
353 1 -1.2101781342351165e-02 1.9034374321312622e+01 6.3009095594641824e+00 3.3088326193534985e+00 0 0 0