LAMMPS data file via write_data, version 2 Aug 2023, timestep = 500000, units = real

276 atoms
4 atom types

-0.32930138395890296 7.573457383959667 xlo xhi
-0.32930138395890296 7.573457383959667 ylo yhi
-2.052231763230761 47.19837376323312 zlo zhi
0 0 0 xy xz yz

Masses

1 12.0107
2 1.00794
3 15.999
4 14

Atoms # charge

15 2 0.1162320151952296 1.3708480571665813 2.6754040426053214 3.0085438066291816 0 -1 0
31 2 0.1707655381783001 2.5277140304079926 2.322292291622065 8.08240197538246 0 0 0
33 1 -0.1355901239842272 1.723198750539098 2.2010800303436477 8.86470433830255 0 0 0
30 3 -0.509839503422957 0.7352003878332432 0.8386266359042844 7.039502157995061 0 0 0
32 1 0.2063400812023452 0.6586233878043746 1.3718823248856753 8.462913039186105 0 0 0
4 2 0.1461783797379562 1.9831801853986488 3.4120084598009917 4.64491822139379 0 -1 0
11 1 -0.3316084471424693 1.2086979724107065 2.8131704034419593 4.21632115525159 0 -1 0
13 2 0.1651408678892193 1.2547766257759663 1.817967367033173 4.719133871262006 0 -1 0
17 1 0.02856057274474037 -0.20067376447115295 3.430149880175296 4.433522346916802 0 -1 0
36 1 -0.1007739061114024 2.050908741228884 2.8506881373750503 10.070804405589264 0 0 0
160 2 0.1699891965179911 -0.2461780041031293 3.513309594371196 7.424653742947385 1 0 0
37 2 0.1772753794470209 2.7836361107980174 3.5092797370981357 10.22147902678235 0 0 0
183 2 0.2050461120131286 2.06882502099014 1.45714487307075 14.594705555891274 0 1 0
39 1 -0.03781756434186259 0.9026256660820215 2.8383031928969715 10.91799311263777 0 0 0
185 1 -0.123098280353637 2.512990059062817 1.8825355130169612 15.460844842148951 0 1 0
189 2 0.2401121942375664 0.5970389886286921 2.1115106572977718 16.32917512869367 0 1 0
179 3 -0.4746514675579009 3.269924882530305 0.12510526265255373 13.031210980158788 0 1 0
38 1 -0.0456844186230253 -0.3116335432299056 2.2171002729910083 10.514998770319988 0 0 0
68 2 0.1677222363373087 2.407566680317831 1.1954363702445072 19.77912692920347 0 1 0
77 1 -0.1618382790587588 2.3165637407781117 1.3277658432817705 22.20368574106275 0 1 0
66 1 -0.1681434366168279 1.4901457161553728 0.6383663159433979 19.525561811266872 0 1 0
191 1 -0.08087400278050536 2.003194321946622 2.9977544096033615 17.655678870616285 0 1 0
67 1 0.1926548865151601 0.24708009321556024 0.8409045262918289 20.180805555693265 0 1 0
72 1 0.2238135079122752 1.2198546446466851 2.170213094818392 22.06845390348581 0 1 0
190 1 0.1713019849745649 3.419159824925761 3.043549646617584 17.932995427784554 0 1 0
78 2 0.1485088505432365 2.31824036207132 0.37824269179053405 21.62270565033966 0 1 0
70 3 -0.4459978486698603 -0.03535675247410458 1.7091686551371867 21.400890709363438 0 1 0
194 2 0.2409077525768266 1.2341875606499109 3.2531403590233388 18.344415243610804 0 1 0
188 1 -0.06373106011940111 1.6098268430497598 2.3509683067468465 16.483240819410504 0 1 0
211 2 0.1481552730453759 0.06408659218465307 2.7835545695686266 25.55863676722665 1 2 0
225 1 -0.01454103832646316 2.5887245949134963 2.1246853141415576 25.412261549217753 1 2 0
221 1 -0.1126790067052841 1.5057213489765626 -0.09932231473667685 24.41699559621501 1 2 0
227 1 -0.009146298068677811 3.2411093976514804 1.0854907615929994 26.403616204060935 1 2 0
83 1 -0.1293675574753758 3.3671396110751197 1.5268911301397696 23.03956368386131 0 1 0
218 1 0.01612216877193858 1.3870762219573889 1.2363963312241524 24.917374493137828 1 2 0
219 1 -0.3339381271141362 2.2032710236443904 3.482261721658804 26.073723482060036 1 2 0
230 1 -0.12506697351394 2.85251916829699 1.0484542755658994 27.75358141613186 1 2 0
213 2 0.1497857416999406 1.7902900735755036 3.277190765413991 27.052734376863956 1 2 0
228 2 0.157887560950855 2.0092914251632386 1.3969483468774306 28.189438116598616 1 2 0
214 1 -0.1217628251040197 0.12414313818001643 1.845489578248611 25.0296219777782 1 2 0
71 1 -0.163827957331261 1.3378866349322198 3.3907308935652454 22.724605966637537 0 1 0
217 1 0.02294358116650779 3.489672567444559 2.566661451041096 24.122569038178117 1 2 0
103 2 0.1879988456031943 1.2943513182909019 1.3124590347728666 34.26429708211414 1 1 0
98 1 0.1930050039840345 0.39900602886902947 2.384911691484871 30.20267319520249 1 1 0
104 1 -0.1220715977866328 0.9082532162941102 2.3115745454994157 33.96185621661486 1 1 0
99 3 -0.4717457317416908 1.1556365129104 2.069374540393952 31.453972111004763 1 1 0
101 1 0.2248374038342109 0.6457462290508272 2.687640825029968 32.669565269178335 1 1 0
94 1 -0.1715980156792342 -0.2660410773220941 1.3997785840061865 29.488314511998666 1 1 0
234 2 0.1598887667277189 3.3682077994275463 0.23879392014575573 29.732180375531687 1 2 0
223 2 0.2869084283496402 1.3943092938213797 0.8489752307430709 37.770624159831485 2 1 0
110 3 -0.6084086384057823 1.2778879952141078 1.7296491675907597 37.19189357778073 1 1 0
115 2 0.2023934442246252 0.11189451782497023 1.667118728026589 39.05961769485796 1 1 0
107 1 -0.05184534348789514 0.5845657403927627 3.1435569500940734 35.14576931076556 1 1 0
109 1 0.3938472425771243 0.6917852306841275 2.7787774910848797 36.47812412443916 1 1 0
128 2 0.2066900436544939 2.357550794116253 2.340976505886459 39.6280500095598 0 1 0
117 1 -0.161307295016853 -0.23276522122266297 2.647238103909568 39.39078809910558 1 1 0
274 1 -0.2359769598399597 2.5315719056689643 2.1155274785829397 40.58611019530136 1 1 0
276 2 0.1652325895539632 2.134449167304962 1.213162785699666 41.04117180144239 1 1 0
269 2 0.1293713051852748 3.432118141252008 3.4824560119264376 43.27731821998921 1 1 0
130 1 -0.07216902957561105 0.28546868453639407 -0.07904416801851505 43.1880362327077 1 1 0
273 1 0.04613015668492704 2.9792227545474597 3.0854316531928134 41.38021284027714 1 1 0
9 2 0.1507373613516481 -0.17276280477756062 2.9503353441959947 46.588182574745446 1 -4 -1
18 2 0.1240539128222958 -0.07202584417377556 4.287625406698153 2.3467196471144893 0 -1 0
166 2 0.1900211590603307 0.8375105967653458 5.483048703173156 8.195053067243231 1 0 0
24 1 -0.1280089321419481 0.9710661495206314 5.53649121688264 4.969921639083319 0 -1 0
275 3 -0.6349744554736712 2.8317363456056244 5.899177184937811 9.420057393228678 0 -1 1
168 3 -0.4938339876121375 -0.07346174568200481 6.53150734457769 10.046137279672282 1 0 0
144 2 0.3426031354546284 1.9896012548603368 6.043426716278779 9.771399905145453 0 0 0
20 1 -0.02613394321520975 -0.17400904007405185 4.712124455820236 5.213454550833168 0 -1 0
26 1 -0.1455833855346414 1.1923313766868104 6.747797800542093 5.719977363355028 0 -1 0
28 2 0.1815315784200609 1.8170291960998335 7.388348039835824 5.234261124013592 0 -1 0
29 1 0.2117734519747944 0.44549472812662017 7.351208347609003 6.73304736675024 0 -1 0
22 2 0.1376936365195501 1.7250595342648305 5.263118791548632 4.249000051625013 0 -1 0
139 2 0.2027045416444413 3.4486474497095556 6.0493319517004425 6.977416408302654 0 -1 0
164 1 -0.08679080318384109 -0.25425971726242735 5.497390109561342 8.202607806692352 1 0 0
141 1 0.2167659887927997 3.5400281723173004 7.065343604325388 8.843762732957096 0 -1 0
54 3 -0.4519271913494995 1.3284326422749635 5.2988321219356544 16.23841435206719 0 0 0
171 1 -0.1078062839795531 0.5054000596992246 7.019220245377832 12.573638957726153 1 0 0
51 2 0.2273089899607331 3.058723463841212 4.713576663293666 14.253743387073513 -1 0 0
169 2 0.2220249902737768 1.4792581029960612 6.830596174553146 12.290598853531838 1 0 0
44 3 -0.4997084910121528 1.3902673124919769 4.20469749545171 12.977495105372897 0 0 0
174 1 -0.08454995298180766 0.16487923265010163 7.433467127046121 13.891175736826405 1 0 0
42 1 0.368824011199572 0.6014582270070395 3.6890247749453478 12.1557171912672 0 0 0
48 2 0.238218751999528 -0.1868084779304188 4.724076364553823 14.402955219300996 0 0 0
175 2 0.1863243837944804 0.8078365071768943 7.4586956258692485 14.665795304317761 1 0 0
60 1 -0.034633120662725 0.44231756504119624 6.772023561474928 18.128011873099194 0 0 0
200 2 0.2244706351471991 -0.13222713010146758 4.802948268580145 20.129841296446415 1 1 0
62 2 0.2075578585884682 2.501541258058758 7.146511117341749 18.279820706716585 0 0 0
63 1 -0.07422466391613415 1.5729002464848536 7.47985291157541 18.61940968822142 0 0 0
57 1 0.3118126067066448 0.44602764678510276 5.900167601197181 16.94807063646384 0 0 0
196 3 -0.4947405029373047 1.9569408939528854 4.614430694402105 19.780185512225025 0 1 0
203 2 0.1349698315079976 3.421896406814933 6.3485336566539505 22.32831260578375 0 1 0
197 1 0.3780902426542507 3.260538747208507 4.561975765869664 19.852922876691185 0 1 0
206 2 0.1711946788206835 -0.3182036583920806 6.826983175529553 21.754562080857852 1 1 0
212 2 0.1598657232325048 3.217356276986186 4.136739871053287 22.42188118594867 1 2 0
76 1 -0.2180640462684579 2.6679717695505425 3.8101300907814286 23.26448952749787 0 1 0
220 2 0.1279590384558255 0.3851236721915893 6.053095104238597 23.6046560858115 1 2 0
215 1 -0.2021383437497741 0.43311957267679346 7.019555862535987 24.04531303724295 1 1 0
226 2 0.1354544563953652 2.4981411781405596 7.5199243313557815 24.206660183238576 1 1 0
73 2 0.1255846049193699 2.4499265731272053 4.654844990970946 23.806245412865085 0 1 0
224 2 0.1262672969310116 1.3741891879014534 3.9905751172017174 25.47795766990059 1 2 0
222 2 0.1472359512899568 3.1090853172924633 4.1237713517560834 26.173091404636445 1 2 0
69 2 0.1537899484702451 0.5265432007677343 4.03925851239026 22.62975197233755 0 1 0
74 2 0.1343013968845132 -0.3142935981271186 4.168002354899663 24.57797038056037 1 1 0
97 2 0.1543484899932357 1.0218788817053703 4.345824964818905 30.287445019827896 1 1 0
95 1 -0.1941473122373651 0.41354369596198437 3.703334462580468 29.688672422452946 1 1 0
102 1 -0.1519772078236109 -0.17793646492166718 3.874714992220621 32.53425073728519 1 1 0
108 1 -0.03377681570551234 0.06218351369831221 4.465956204879473 34.866501969926375 1 1 0
260 3 -0.5744022552810725 1.7663274517907044 6.053180169990568 40.361161209538736 1 1 0
112 4 -0.4090894430449401 0.005299756982241666 3.7146236774567596 37.13895341758783 1 1 0
251 3 -0.5711137500045584 3.538873737928425 4.210857680628213 35.45633309478802 1 1 0
272 2 0.3223399673326272 0.8099331607973796 6.192100930061308 40.70833650785285 2 1 0
263 1 0.3926121098733246 3.165107583286443 6.045235980086542 40.77278544968219 1 1 0
255 1 -0.1756670248529532 3.6164161301505433 6.28368044497423 37.47130283880793 1 1 0
253 2 0.2294387532787797 3.4519771632239533 5.259705177782849 37.23263499271724 1 1 0
121 2 0.3076435474698501 3.067378426853797 4.185515757201064 36.38868483525735 0 1 0
134 2 0.1290972667766152 2.008779928669319 6.900329463473963 43.68486738219768 1 0 0
136 1 -0.1331223044441682 0.5144880194441601 5.363080481269734 43.674915457450425 1 0 0
138 2 0.1484271354003612 1.0707790058314806 4.528162139481798 43.64441324993139 1 0 0
270 1 -0.1284664567280899 3.4223368349707166 3.945746641199092 42.30924836159349 1 1 0
133 1 -0.1040934821500184 0.9833858558885007 6.737478381453642 43.56750299573329 1 0 0
131 2 0.1371136741984347 3.449475489565387 5.926931808912353 43.06162112549207 0 0 0
7 1 -0.1262571791344415 6.355879305178652 1.0838282164028816 3.9685972245872803 -1 -1 0
19 2 0.1204563250725344 6.680722970566828 3.0672587310460084 2.3873980812795237 -1 -1 0
5 2 0.1228957497246858 6.886985525617939 1.0621919186696354 3.077186070305417 -1 -1 0
157 2 0.1404414490472154 4.8697986621899325 3.4764152735741694 3.735185190055927 0 0 0
34 2 0.1958341586887882 6.80627818352872 0.6406899830879126 9.192774927848664 -1 0 0
155 1 -0.06854143030911333 5.221144421417076 2.568257003109652 6.9663898413911 0 0 0
150 1 -0.1160915912408335 4.674592827997759 1.3727686816503617 8.780727565554876 0 0 0
10 1 -0.111056559441388 6.711450873735635 2.1702045230579157 4.9377351059878345 -1 -1 0
2 1 -0.1514972743231593 5.657355579899577 -0.06179621251187439 4.262268050509033 -1 -1 0
148 1 -0.0144637070314465 4.827687177526345 1.2946974568761118 7.347445534838149 0 0 0
145 1 -0.05044317908771675 4.522449434113807 -0.016279676018463196 6.682934052592209 0 0 0
154 2 0.1910520819193421 4.986977657375032 2.325784098400498 9.113107944021628 0 0 0
12 1 0.03309762834730964 5.3881646595824995 2.7563720029472702 5.493148858201937 -1 -1 0
146 1 -0.1518284902812195 4.030016801509609 0.33310711561764617 9.483763132193612 0 0 0
151 2 0.2009500978461304 7.311219424866633 1.7047729267116325 5.7744041848389225 0 0 0
152 1 -0.276988098787197 4.4622978200450385 3.3578554555224462 4.678007516219407 0 0 0
35 1 -0.1359168490196402 7.527897925315363 1.3263430026300282 9.372958318831849 -1 0 0
40 1 0.3760356883714019 6.422462313197521 2.6254881734613815 11.380142923794317 -1 0 0
43 4 -0.4095130350497928 7.053139578235552 3.345349781450665 12.39649810106336 -1 0 0
181 4 -0.4107703498942907 4.812013909764098 0.8255049950785798 14.945235311695072 0 1 0
180 1 0.3802188739370682 6.181709374123938 0.7630184988218114 15.263917211672794 0 1 0
182 3 -0.468924554603881 6.813396507877283 1.3483547928120525 16.22648282886759 0 1 0
178 1 0.3569132381067208 4.445984352300238 0.22891787506861216 13.578462968703748 0 1 0
41 3 -0.5086415694614939 5.173951901168883 2.297373682995027 11.319531535409585 -1 0 0
184 1 0.1592992506140029 3.870229426388252 1.5275248261142589 15.82519172987497 0 1 0
176 1 -0.02699878394961515 5.747189517915564 -0.24692245950475777 13.105373639315909 0 1 0
177 1 -0.05120020772235613 6.756915465342299 0.005365093348838668 14.095749783256089 0 1 0
147 2 0.2159323385930484 4.014319098816853 0.471816037121487 10.552892404472558 0 0 0
192 3 -0.4155613783817984 6.527878316325396 3.130314428743611 18.562684926019145 0 1 0
64 1 -0.09996110153692371 6.96772419131725 0.2818892475046284 19.68565868802251 -1 1 0
65 2 0.1968270400853164 6.011775919067068 0.5798076421274436 20.07515176517767 -1 1 0
186 2 0.2615304257679247 5.122570134127722 2.0385998255909463 17.24311896947014 0 1 0
187 1 -0.1472834813277913 4.125354139985302 2.1666108953497485 17.061889901312526 0 1 0
209 1 -0.1141837935263779 6.950472634048859 1.1410773582799814 24.46088572409349 0 2 0
210 1 0.1934232588159958 7.06228018274292 -0.19834615147844664 24.00152470139154 0 2 0
88 2 0.1717785019680276 4.14760596772498 0.8651717288050427 22.98634410722965 0 1 0
92 1 -0.1294615817740144 6.926986537168046 1.6050568792878936 28.217572505979653 0 1 0
75 2 0.1718360575187102 4.745730182155845 2.6457607935907235 26.97368694086033 0 1 0
81 1 -0.2473695533834623 5.589919427438855 3.3247276917309456 26.796032466910425 0 1 0
207 2 0.1862212768386982 5.973323721717309 1.4657485487255897 24.52640716407841 0 2 0
89 1 0.00209322683161537 6.75667338324574 2.91873149041729 27.7947515392483 0 1 0
229 2 0.1858761076495121 4.39561020165982 0.03222067651336297 24.84503853230653 1 2 0
231 1 -0.1226697022043733 4.277435696959126 0.268959058846556 25.857503401631085 1 2 0
90 2 0.1549448568741012 6.406525161055304 0.7765829048769017 27.926396253600046 0 1 0
80 1 -0.1676343240781892 4.821647982360918 3.2118815849382063 24.161238024919513 0 1 0
87 1 0.007187848224054695 5.593673106223701 3.5511547472202123 25.235629827374645 0 1 0
232 1 -0.1547200823526944 3.6595902440108863 0.323918033532398 28.683178369621473 1 2 0
241 2 0.1661450729423888 4.64065216619644 -0.1285888402945117 30.83869781656667 1 2 0
248 3 -0.4344165581771737 4.586110698765723 0.9148293656535627 33.530627260737916 1 2 0
247 1 0.3176378847254021 4.216522214395945 -0.2808944635652832 33.62421856895614 1 2 0
244 2 0.2156796038404357 4.01262296627328 3.1487554996584546 32.702269141799604 1 1 0
238 2 0.1675468718992381 4.718180796299533 3.5729970852890243 30.420416405989773 1 1 0
96 2 0.1481737643315685 7.519341997604266 0.4204638274398602 30.037279801493373 0 1 0
119 1 0.1832602525942487 7.207923041114843 2.596822303975798 40.70128497464049 0 1 0
258 1 -0.1622490671065697 4.485395913245099 1.007469924977183 37.78308045599499 1 2 0
122 3 -0.4014025239291874 4.190513277967448 3.4957563422845035 38.69714169434157 0 1 0
261 1 0.2479460257320672 4.319164434862343 2.3117332489365765 38.255820712248095 1 2 0
259 2 0.2034170918267621 4.834530620214169 0.24719576173613245 38.509308197442664 1 2 0
256 1 -0.09107066171090961 3.880465412176899 0.6001706961399681 36.62152542880412 1 2 0
254 2 0.2239402512514219 3.64566045583647 1.3303664535531017 35.959618168827916 1 2 0
153 2 0.1563234302895858 5.338388138521388 0.2898246258571001 44.651826200063766 1 1 -1
125 1 0.3449150289975285 6.732402403795657 0.34225580102585207 41.3145878323148 0 1 0
124 4 -0.5006390068080165 7.167758272339641 1.4199947351928395 41.5238423673879 0 1 0
126 3 -0.6696768052571505 7.005070905770412 2.28124336740373 43.99996182675014 0 1 0
16 2 0.2708448339123526 5.993321521054141 2.4966509528471854 44.07896626862073 0 0 -1
127 1 0.2601141893866756 7.429343039644803 1.05050624746187 42.72901770730043 0 1 0
266 2 0.2871152708835242 7.372917064062885 3.2075722062064647 44.15412365479713 0 2 0
6 2 0.1364397970997088 6.300505768915605 4.52763527353354 3.172250159137441 -1 -1 0
149 1 -0.1460797042808198 6.697528237614292 4.752533873266503 -1.7992523457299756 1 -3 0
14 1 -0.3511682718470802 7.094055928956326 3.906205549366737 3.0097893211155586 -1 -1 0
142 2 0.1305321324905371 6.424491342413395 5.680647130150334 -1.364069338307577 1 -3 0
1 2 0.1347277717255667 5.5421178583037 7.119434660579207 3.4371144782550473 -1 -2 0
143 2 0.2439179357232961 4.27102790666818 5.776563296319221 4.041008785855741 0 -1 0
162 1 -0.1119790882325997 6.963772533536345 4.265787021678767 7.478542354068342 0 0 0
140 1 -0.1294602615620514 3.7992414175315252 6.920309828240403 7.48074704391022 0 -1 0
23 1 -0.0826458502431789 6.820783862585853 5.28331095054595 6.243895482631865 -1 -1 0
27 2 0.1827338297806277 6.408725311942333 7.051409545882522 7.622328102105966 -1 -1 0
25 1 -0.1409017973939641 7.171868525519986 6.580804881329016 7.1979547404822775 -1 -1 0
21 2 0.1899403044613792 5.750560523883733 5.366263285245073 5.944189204781593 -1 -1 0
163 1 -0.1612183488625532 5.715050012884601 5.0616710314427085 9.982892310150758 0 0 0
167 1 0.1895480677144663 6.865477274299719 5.613994425212502 9.497387449696095 0 0 0
161 1 -0.1209907138437519 5.059540511245301 4.120089654622258 9.10109604983362 0 0 0
159 2 0.1783761725565471 4.05253943026674 4.037045453709115 9.260864323372731 0 0 0
137 3 -0.6437301400298499 4.1230063527980025 6.216248636674504 4.942597590046561 -1 -2 1
156 2 0.166369357814365 3.7610243122321707 4.037294538194987 5.1289444957969605 0 0 0
158 1 -0.04075369805238988 5.566722872115301 3.7222187844485433 7.852256731704836 0 0 0
3 1 0.20341663736658 4.865982998191626 7.388941071331826 5.387582290619365 -1 -2 0
172 2 0.1713966974778083 5.390266532862458 7.019321138357942 11.093384451028966 0 0 0
173 1 -0.1498197703244555 6.124654650554308 7.150472488644114 11.835131421558694 0 0 0
53 1 -0.09822854007040061 4.621222389767838 5.311727395207271 15.574532673889252 -1 0 0
49 1 -0.1218470142106411 6.662835294567102 4.582124903131601 14.703888194343826 -1 0 0
170 1 0.1902350284974086 7.493943461427907 6.937289730885008 11.473410827138144 0 0 0
52 1 0.1833102389668676 5.995402783457183 5.15441391402448 15.824415895576305 -1 0 0
50 1 -0.07567572544644462 4.070241663691291 4.7880656324600706 14.397133428860435 -1 0 0
46 1 0.142767634058077 6.210753163238975 4.052039544897258 13.46536797496166 -1 0 0
47 1 -0.1138763720416995 4.826438460994202 4.098704146063391 13.445526647368833 -1 0 0
56 2 0.2324376771689648 3.9391227790505168 5.736257229432193 16.347454695981977 -1 0 0
165 2 0.1715819071234679 5.302428470158286 5.364441014195512 10.927917059869758 0 0 0
45 2 0.2174883529784945 4.269986855534123 3.635295918242146 12.613967631321746 -1 0 0
202 1 -0.18836847499593 4.339679781741859 6.145088687039042 21.827550364544717 0 1 0
199 1 -0.06742462766373965 4.289728539769006 5.203865045471763 20.761443526490574 0 1 0
59 1 0.3735235952496046 5.982958059272027 6.373943918464396 18.067789907963732 -1 0 0
201 1 -0.07849722764140743 6.8534015880488965 5.1193275943273235 20.62328313673788 0 1 0
204 1 -0.1677145651566016 6.751919836876643 6.172048341746238 21.545540573786774 0 1 0
58 3 -0.4696638601554508 4.687751384579522 6.51714491447357 18.142454926302502 -1 0 0
61 1 -0.03480103541261022 7.062899072514877 7.160413616256904 18.69204777434725 -1 0 0
198 1 -0.02819051911189756 5.562031066752996 4.706420918561875 20.237720507706186 0 1 0
55 4 -0.3418615089047062 6.625771753113796 5.799868322572643 16.93306245320579 -1 0 0
205 1 0.201763842040692 5.597006358276977 6.599796371770701 22.270248795414695 0 1 0
195 1 0.3439659985934653 5.578600239820071 3.6945739857894377 19.189709330863973 0 1 0
193 4 -0.3977100884095504 3.9864708898780394 3.7618934502616277 18.997946079810546 0 1 0
208 3 -0.557037213946342 5.680321718105409 7.202720284502902 23.63487507020014 0 1 0
233 1 -0.1590473704253561 5.017475802544284 7.3552282073841475 26.775230398526336 1 1 0
85 2 0.137444842343431 7.095335245463303 4.7786991595789265 26.068980027549625 0 1 0
235 2 0.1486214655877694 5.7467340978085515 6.646800109886353 26.41049368497636 1 1 0
91 2 0.1357564812129821 7.29788241637677 4.960228191024859 28.321216727565833 0 1 0
82 2 0.1866767115930023 6.298369871072869 5.44605286298086 24.64249192517627 0 1 0
236 1 0.1272521785395969 4.649120418950332 7.417328274860503 28.12866954418325 1 1 0
86 2 0.1673882570566277 5.279258694750086 4.17303124906184 27.213587673552134 0 1 0
79 1 -0.3632403844627067 6.73323365982328 4.588128033892579 25.090656542038964 0 1 0
93 1 -0.140026685140913 7.433634865151736 3.9101041518134183 28.541236782093296 0 1 0
216 2 0.1596759092920323 5.04926623764961 3.6887877679139702 23.12500692816294 1 1 0
237 3 -0.6042132788257373 5.21520725774405 6.070043124256003 28.889996344798874 1 1 0
239 1 0.1540703712653501 4.7960863750852845 5.680533721524562 30.425320423516556 1 1 0
246 1 -0.06505868059698625 4.089111801343677 5.220911671893227 33.2335678685471 1 1 0
242 1 -0.1558694075321515 4.542338080242203 6.783623707269239 31.255609073039746 1 1 0
249 1 0.4073424788159898 3.8162211761043405 5.279534628732958 34.631017659353574 1 1 0
106 2 0.1734512217155311 6.8668437147830375 5.6977556503852105 33.4028932235223 0 1 0
245 1 -0.04471087715493099 4.251488107627254 6.547035988989199 32.64073331333053 1 1 0
240 1 -0.1572858651726967 4.477366523320243 4.403077377949537 30.974899907842758 1 1 0
243 1 -0.06541251303427259 4.121728136383353 4.13756208558115 32.32205750034014 1 1 0
105 1 -0.07488230963497777 7.507078832390706 4.7984615167906775 33.54152449397755 0 1 0
84 2 0.2452025743333821 6.095885624755597 6.550460491874982 28.91853748103878 -1 1 0
100 2 0.1618990681031799 7.498198137453607 4.129998472004344 31.56224064497187 0 1 0
111 1 0.3263408905692086 7.335847829567976 4.922093558600662 36.103253631219715 0 1 0
118 1 -0.06673905466467393 6.925448696192623 4.957693024510063 38.97707859437692 0 1 0
257 1 0.2257342162896981 3.8586726982435744 6.472648068023504 38.901953216045044 1 1 0
120 1 0.0257420548796884 6.416880855913436 4.997566057012117 40.2827375293779 0 1 0
262 4 -0.4658890221275902 4.096895778362628 6.242360652833515 40.02971455735728 1 1 0
252 1 0.1655954207669241 3.758361128379046 7.098864110488226 36.35745772842459 1 1 0
265 1 0.2915056856856803 5.579780174244055 6.174621718500687 40.739040845342544 1 1 0
116 2 0.2454706258992322 6.897537639262196 5.910983431346913 38.3760018585518 0 1 0
113 3 -0.4240537960655777 6.568800808123865 5.900194051846238 36.389640318816106 0 1 0
250 4 -0.3928276451642219 3.7826518070581283 6.550100071717293 34.95827228773521 1 1 0
264 3 -0.5098345474431639 6.518890446066251 7.1989336149507235 40.288021473215764 1 1 0
114 1 0.2025298399772643 7.569879807169736 3.775377022455263 38.466726035638715 0 1 0
268 1 -0.04984883534178031 5.309663304120964 5.640839746614058 42.194612414969384 1 1 0
271 1 -0.002864720004098447 6.2467996363369815 4.480083314318927 42.39471309967274 1 1 0
132 1 0.02079928218544805 5.970021115124276 6.377522109344187 43.550415062302875 0 0 0
135 1 -0.01769955107598484 7.001766915754147 5.171456741145966 43.396774004930535 0 0 0
123 1 -0.0174928512182117 6.699211221795026 3.8955305570684544 41.12559638623756 0 1 0
267 1 -0.148966453510583 3.778566281094559 5.417489531583681 42.24222194911209 1 1 0
8 1 -0.1376133882661744 7.273105775457601 3.8198863455482988 46.96064790182561 0 -4 -1
129 1 -0.1680568022460244 5.6624856294634975 7.423204368377304 44.13265039619918 0 0 0

Velocities

15 0.0008320532070637337 0.013367185045206025 0.0020000166242096504
31 0.00013456875409598596 -0.06009842429545198 0.010822583759489414
33 0.0006169435974481119 -0.009555759007557221 0.010586842652649342
30 0.0018615216359669962 -0.0053033946058834375 0.0034822029181975638
32 -0.000508843261697438 0.0020623303161055023 0.004781016576167601
4 0.018404418489087283 0.02358400937969003 0.00989945233523015
11 -0.0009731066864113528 0.009836477430085068 0.00025729504138623233
13 0.033551818519945806 -0.007827613784821663 -0.03018095435157075
17 -0.010025779414940329 -0.0046679940607612935 0.00928171950924871
36 -0.005376725526461944 0.01617159511416462 0.0012633739875657552
160 -0.001578131806505345 0.010148343608971534 0.03448400200718781
37 -0.0025536444550085945 -0.03516611507799533 0.018895108419732645
183 -0.03449593792134688 -0.0017011130270167193 0.02898093132822348
39 0.00664382158704488 -0.008263440056898497 0.0009158113484267671
185 -0.00013845887919555858 0.01214964972321402 -0.0020615872719054094
189 0.0080294289177983 -0.0025401427813777607 0.016881814018393896
179 0.004414582096614077 -0.005043329568136133 0.005793955843146204
38 -0.006979116020577417 0.004352703008992611 -0.00297235336417303
68 -0.020034816027256708 0.013042513471082928 -0.029789590076731872
77 -0.0036442866936544677 0.0010257744783115203 0.005763534033152264
66 -0.006690511208101051 -0.004770507040206906 0.0010621462749912994
191 -0.005154609399070379 -0.0002855404443686621 0.0033556421525356567
67 -0.0033173339578505146 0.001993484956286396 -0.0070748193309055065
72 0.006411333199996203 -0.005651924609925325 -0.005519480857754346
190 0.005958783465890963 -0.0030667509031780354 -0.0012655214144931257
78 -0.029027922321396258 0.016658748229174323 -0.026066437381439208
70 0.005041145037811962 0.006289063574311317 3.809667993505179e-05
194 0.020070969264669943 -0.02644267513864377 -0.03117315845176209
188 0.0038796377504346094 0.00858905302527944 0.006886024421668539
211 -0.012776089398563362 0.011732168406221839 0.06132900583029656
225 -0.00015434813488074593 0.0013365887997051815 0.0035604176631508365
221 -0.0038115648214290935 -0.007869206202535436 0.0038075436775356314
227 0.004944998600152534 0.012479049191666551 -0.01808826920064768
83 -0.008327553093518937 0.003912443144761686 -0.0017608702195460802
218 -0.002328022871217851 0.0030724232469416975 -0.005655899162717956
219 -0.00288331515968199 -0.0029595360964770837 0.0021826210771048256
230 0.0057920610685802 0.004868476816347164 0.014334712020372566
213 0.010325439116042707 -0.02802517102559981 -0.0011416608934324498
228 -0.013178113511989673 0.0025571962520011845 0.01827104515063781
214 -0.001906883133546806 -0.0010951909612060252 0.002094065583736649
71 0.002790557865397634 -0.007077978432612593 -0.0033165284582179753
217 -0.0025922580583202714 -0.002717837567997519 -0.0038288136570325377
103 -0.01646561301169954 0.019103973421725626 -0.013893066766814137
98 -0.0034374134095996266 -0.011036055863897503 0.003815602369558983
104 -0.006365404438279421 0.0003995011543589075 0.00019879971067770797
99 -0.0009983329720045524 -0.0077193049868683195 0.006182423193497103
101 -0.0030508552278639264 -0.0009072480426708419 -0.006225467190821048
94 -0.0028541798668958295 0.0010157274560105185 0.007790644242419282
234 -0.012070380614682042 -0.01916688138451739 0.03307940459671131
223 -0.022480065535498854 -0.004352693250209496 -0.006535397296138244
110 0.0019770428754919693 -0.0010815458043086637 -0.0013649229422732095
115 0.0012658989614738878 -0.001224352203503171 -0.007769090421050089
107 0.0063956159610936225 0.0021675832536164467 -0.0013780978375131782
109 0.007403231176652113 0.00654751920800024 -0.004240050019406659
128 -0.023053587947970345 0.02736115817971515 -0.01923331881661719
117 0.005226722697359916 0.00620023257671244 -0.005467934828207939
274 0.0019739684417229577 0.005631242461144119 -0.00512056028469015
276 -0.02591113232018805 0.013701457427617627 -0.0071254455304770765
269 0.025050297781277646 -0.001824515040105299 0.006133649511591306
130 -0.004873178316783338 0.01230395365245427 0.0072623476836009195
273 -0.005009785624006282 0.007736448027412635 -0.003290006547145087
9 -0.0009074083959830033 -0.010337370979132258 0.010296713994962318
18 0.00872567825260635 0.0012246515894072394 -0.01182457351803685
166 0.03591189961420809 0.032068803953835164 -0.002296927101788123
24 -0.007162305979806315 0.004521570462302964 -0.012223987515893306
275 0.0015584942688963116 -0.007230629191721469 0.005133919431299773
168 0.0034728187061820698 0.0029402580464890217 -0.0031060694865230323
144 -0.00752271438128921 0.017240056555488225 -0.02210478306095189
20 0.00363847002344235 -0.0018195156235006685 -0.0013027112494325877
26 0.0024073970088175673 -0.011034962101954246 0.006173651676154484
28 -0.007521672837041795 -0.018484598917854433 -0.03063434042112909
29 -0.012920224207863944 -0.002554471762194346 -0.009222729519670122
22 0.01000042959444862 0.04214848097112114 0.017229080181154453
139 0.023467054480845632 -0.01900158112825673 0.021745472127569714
164 -0.004188083778212804 0.002155565565464369 0.012250529866887282
141 -0.008384354990298416 0.005594184359697265 0.012825902939332778
54 -0.0005782726940382646 -0.0011023160128620841 0.0034670340423577826
171 -0.0072962602704892115 0.0013290379956675939 0.0011084775691927772
51 0.021053448674293814 0.023244940522300667 0.011626566818328257
169 -0.00431748478522111 -0.0011053879955398855 -0.008246156843300061
44 -0.006044725819488735 0.005303065894206231 0.0012249415170837224
174 -0.003817503590073916 -0.0026174688228222834 0.003476360980179631
42 0.0138692986373083 -0.007748520901240168 -0.0044233746437461205