LAMMPS data file via write_data, version 2 Aug 2023, timestep = 0, units = real

276 atoms
4 atom types

-0.07942778902683045 7.3235837890276745 xlo xhi
-0.07942778902683045 7.3235837890276745 ylo yhi
-0.4950001410993323 45.641142141101504 zlo zhi
0 0 0 xy xz yz

Masses

1 12.0107
2 1.00794
3 15.999
4 14

Atoms # charge

155 1 -0.08007936488607839 0.5128834842033315 0.2575626314219918 4.613506629245862 1 1 0
7 1 -0.1222254469170072 1.7616406064020915 0.1787681267918172 1.4223486182519514 0 0 0
23 1 -0.08732061056736351 1.7640706767901637 3.167432985215119 4.787497826733282 0 0 0
5 2 0.1385836462199562 2.545320181014784 0.3284474557230689 0.7503052114227131 0 0 0
151 2 0.1421839490382796 2.5270938235910343 0.8134047239557667 3.305384277458027 1 1 0
14 1 -0.3318826442055357 1.1608233655399371 3.2648626847644358 1.1556491561818942 0 0 0
6 2 0.1633192722810132 0.9287285621631896 2.5242302981606484 0.43808996861341 0 0 0
21 2 0.1705889919256361 0.7030211305588283 3.0735944023307233 4.857669706152848 0 0 0
10 1 -0.1281445146812038 1.7783981289708013 1.1377907403999792 2.5995553385102967 0 0 0
17 1 0.02332402728315968 2.1620517743195315 2.662559965659251 2.2085512600910246 0 0 0
12 1 0.03334889932365938 0.4049347780086757 0.9906014610976648 3.291660831586036 0 0 0
160 2 0.163770731227727 3.115362593502421 1.4372414935638618 4.6437706744918374 1 1 0
20 1 -0.01117629750680824 2.2397157514790362 3.5659704070850786 3.4205388911199854 0 0 0
11 1 -0.3549241996445709 3.5770450303871737 2.6945464048108705 1.5223834219976573 0 0 0
15 2 0.1398992347718682 3.5845271688698976 2.09993622237641 0.6426252481871244 0 0 0
18 2 0.1765109750622488 0.26933728358653836 3.5916076406350927 1.635835070982817 0 0 0
172 2 0.1783565347637335 1.484424177782976 1.971913798669751 9.967891114045338 1 1 0
158 1 -0.008432574459288224 1.321183033493888 0.8184304789232654 5.692004943701129 1 1 0
164 1 -0.09131101333176606 3.1198447567989365 2.6207383484639646 6.499217787537089 1 1 0
173 1 -0.1544598814348102 2.2788118655223366 1.8181034471406115 10.643288248246472 1 1 0
161 1 -0.1251044856548303 1.1091057235477633 0.5389420784241096 7.034296978311264 1 1 0
163 1 -0.1614669925770053 1.9576658971552092 1.1033505824031746 8.06272979520932 1 1 0
165 2 0.1660135905537406 1.8534642186336645 0.645226389119126 9.00550365605862 1 1 0
167 1 0.1959430070208273 2.9426008169960554 2.0496698149604757 7.8855593654865 1 1 0
170 1 0.2132359748035831 3.5848672721520005 2.1475049883149055 10.222377905361098 1 1 0
162 1 -0.1000539611008237 2.4060198870430276 1.8285837734238255 5.333640309922409 1 1 0
176 1 -0.02710915880834373 1.9898034679336472 1.2675098486852339 11.935386305699987 1 1 0
178 1 0.3244302827839855 0.7031749715357645 0.7675623343509597 12.399529839948338 1 1 0
177 1 -0.03875393551298255 3.0972246031557957 1.2176555672399725 12.904461769963051 1 1 0
180 1 0.3659161787678278 2.6182184817470664 0.6980026934473356 14.19277104995627 1 1 0
181 4 -0.3955730467682829 1.2477390858995236 0.4155817589792804 13.942469466670094 1 1 0
187 1 -0.1348608438433724 0.6587752940890579 0.4612089221580794 16.318373945220976 1 1 0
186 2 0.2607861393699759 1.6357013284429565 0.9058090096293188 16.512207682417813 1 1 0
184 1 0.1678105627820521 0.35646750958806944 0.16283476202690703 14.994076600551145 1 1 0
182 3 -0.4476980981742619 3.263149482658849 0.5105343164052544 15.304274226116693 1 1 0
192 3 -0.3853232383840317 2.846056312089655 1.4782636567026486 18.203768608961642 1 1 0
193 4 -0.361143262393039 0.21868258267310076 0.728854814651785 18.711989569199126 1 1 0
195 1 0.2999736770014858 1.7896761633289342 1.4886883158024702 18.91816499988454 1 1 0
198 1 -0.05348561869897824 1.3964812052318674 2.0729654971781866 20.160062375770053 1 1 0
204 1 -0.1822586214202093 1.73610006635325 3.4125582720553918 22.237037929322593 1 1 0
200 2 0.1677944212999272 3.24615757096281 2.5296810187834287 21.06705307546258 1 1 0
201 1 -0.07570973363412151 2.325015954549337 3.0363364596221416 20.909810544457834 1 1 0
199 1 -0.04874811646156198 0.11646814267844655 1.703216784525303 20.70385123259137 1 1 0
69 2 0.1548054745775619 3.2482881394865712 0.6250987242556626 22.781505920352107 0 1 0
211 2 0.1561720927293325 0.7234465883303386 0.7420277220417137 23.41275795949229 1 2 0
216 2 0.1589738315898808 2.936028614715262 3.099254457309432 27.343933623540174 1 1 0
73 2 0.1443314018910055 3.134657737574063 2.59132941673938 24.249828175385034 0 1 0
213 2 0.1538468447332504 0.19279234893677166 1.284918753112185 25.79425001589429 1 2 0
224 2 0.1851233606700224 1.293623486044294 2.343035121015825 24.95310639217342 1 2 0
219 1 -0.3376863348557906 1.1255050746745747 1.8054330495760476 25.878775472930496 1 2 0
205 1 0.1677695147687075 0.4888514140703053 3.025436019381283 22.710887171328263 1 1 0
225 1 -0.01561616261107077 2.278815864547299 0.7770535442846795 26.06595601825679 1 2 0
222 2 0.1530226377798918 1.0960622705532586 2.4873289920709563 26.69036113288641 1 2 0
71 1 -0.1580169254281046 3.54129580270945 0.5068121418126453 23.80022231364207 0 1 0
208 3 -0.5115902975444551 0.004038218794369941 3.577833685397493 24.03123470057484 1 1 0
227 1 -0.01453925776259935 2.036826942301354 -0.05901223892251575 27.28048605952459 1 2 0
90 2 0.156224380694688 2.4011814943100696 1.1358280331294908 29.401009977755265 0 1 0
75 2 0.1979009702705849 3.2868394213494763 3.0425139882530376 29.8537737087173 0 1 0
92 1 -0.1133210133709896 3.287338077736582 0.5382455838352072 29.385156760436992 0 1 0
106 2 0.1827467004267844 2.980083452015608 2.7690864012645346 33.58327708635685 0 1 0
238 2 0.1363106848811885 0.9693697442820679 1.266000625116585 30.5880892725118 1 1 0
239 1 0.1988383604093266 0.9924386874931466 3.3809335830277334 30.813998464630522 1 1 0
240 1 -0.1883819978500206 0.7792367977106663 2.0441583609019074 31.282897599500995 1 1 0
244 2 0.1977497895817263 0.26891003969911303 0.6391223345195227 32.852610363869736 1 1 0
243 1 -0.1028794510597761 0.33561222876162294 1.6757781573855512 32.56085099314847 1 1 0
246 1 -0.06952543782980297 0.07640694719918303 2.7554725502908837 33.47250349061057 1 1 0
105 1 -0.0717089595315856 3.2107054401722914 1.8043258617654603 33.96556754806976 0 1 0
237 3 -0.5557271055948693 1.4140850025844465 3.546909791406722 29.415104271155943 1 1 0
102 1 -0.159234924557807 3.6122809356093963 0.8034213543168152 33.08340064902764 0 1 0
114 1 0.173601796439426 2.5520903971476754 1.4932960526176484 38.97383270865655 0 1 0
108 1 -0.03101110510916394 3.1770767177833568 1.5017933457792194 35.37864930819704 0 1 0
118 1 -0.05678553736743464 1.8315656161934102 2.6566299956876125 39.360448754464834 0 1 0
111 1 0.316459728409034 2.7626114704720486 2.4423952143221883 36.419791434647564 0 1 0
112 4 -0.3842339434569789 2.9861950903209697 1.2500139238503238 37.66347867082596 0 1 0
116 2 0.2406702713927243 1.5795381096830872 3.3956170646614052 38.62669957782702 0 1 0
109 1 0.3676916521899766 3.45796462135743 -0.0017426972604234064 37.22743363332492 0 1 0
107 1 -0.03045773958526247 3.5429014229414477 0.15098879129072063 35.79391818327073 0 1 0
271 1 -0.01224776300128433 0.9786757344511738 2.3901554623450867 42.86135544808601 1 1 0
16 2 0.2983162936736977 0.1194122902836274 0.22626566397413472 44.10387427423306 0 0 -1
117 1 -0.1450400859508952 2.6884138168409377 0.526022050211901 40.007582157919714 0 1 0
120 1 0.03040458439041778 1.3122697864110335 2.8262202073314073 40.65088286883098 0 1 0
119 1 0.171277517007443 2.25915271286057 0.5925827585788842 41.33483745532355 0 1 0
123 1 -0.02038590406481891 1.5748691762784381 1.8157299222864614 41.639753981368045 0 1 0
126 3 -0.7088080005321283 1.0681827400703843 0.18773477895167467 44.461580366239694 0 1 0
135 1 -0.02206720246626236 1.5855668155489855 3.147109492319177 43.89118631190636 0 0 0
136 1 -0.1451402016289368 2.8175689693812767 3.2364001733521697 44.49841339121919 0 0 0
266 2 0.2891688669065222 1.2262008411017618 1.1627814353613586 44.613503074229584 0 2 0
138 2 0.1302137568731853 3.4552610512217004 2.379137647207545 44.54684123995163 0 0 0
268 1 -0.04895573434516174 -0.042807043662196786 3.4394119174387083 42.50885585084829 1 1 0
2 1 -0.1597872589472088 0.8450278625096267 6.616617496292949 1.1385489449354311 0 -1 0
22 2 0.1395078990731531 3.120600055797903 5.210354953875376 2.3911844945755645 0 0 0
1 2 0.1865897569175752 1.0107925126264947 6.178865912043589 0.17798621429083905 0 -1 0
24 1 -0.1152425845210036 2.858539705646074 4.8124953105417685 3.330101475044608 0 0 0
26 1 -0.1407171880218955 3.250840105197267 5.570741467476215 4.5101357620221085 0 0 0
19 2 0.1612490989114346 1.6218455664422067 4.088416724484288 0.683363964853754 0 0 0
29 1 0.2143798720922175 3.077954834413696 5.221729256265538 5.8523456559223614 0 0 0
25 1 -0.1411950454378247 2.3226513930585106 3.9537629409874473 6.095953461017651 0 0 0
154 2 0.1343785337874009 0.35233444712885137 5.936155594397097 6.6662842178926525 1 0 0
27 2 0.1498353513925828 1.55052032023704 4.111814364630915 6.791105075293853 0 0 0
34 2 0.1532240902666348 1.5257528763228827 5.17423872007663 8.485379050607277 0 0 0
35 1 -0.1549905187927094 2.421948451334222 5.293944850882072 9.035172053902723 0 0 0
38 1 -0.01972140615496232 2.470099343062161 5.072006408125545 10.454991148515523 0 0 0
32 1 0.2118853337015317 3.5425614588217837 5.705150526271402 8.343550497202317 0 0 0
41 3 -0.4930667661836423 0.13800361800126404 4.327301085737361 10.955427366936137 0 0 0
159 2 0.1328942256634915 0.3191659477104382 7.289694440223402 7.305845159223681 1 0 0
53 1 -0.1067431718594105 0.15339699160940173 4.171309919896433 16.419420281838317 0 0 0
40 1 0.3214808228518725 1.3408577595563833 4.631283385612664 11.265687977815913 0 0 0
43 4 -0.3894085172231876 2.222578344384014 4.614647181513732 12.748893016698307 0 0 0
46 1 0.1818836892159154 1.5721731438203914 4.460075127309116 13.949160501883826 0 0 0
47 1 -0.1316113160029332 0.18988719143717536 4.114919073090561 13.975190240638533 0 0 0
48 2 0.2470103237472543 3.1737065028293254 4.804358854686794 15.235593369415614 0 0 0
49 1 -0.1355488925154692 2.1421834792503067 4.570403916751328 15.24106674606489 0 0 0
52 1 0.1702373765323127 1.511763068541011 4.4476863607097075 16.491853795143566 0 0 0
42 1 0.3865970512419676 3.600990588721698 4.972183012817886 12.642288013852996 0 0 0
65 2 0.1736864082312222 2.3109608055526536 5.975005324384535 21.654175955202714 0 0 0
55 4 -0.3743346979449311 2.2237043403722603 4.607032087255954 17.737579453770717 0 0 0
59 1 0.3884440209677033 1.6220099812294126 4.752153705585978 18.982928705722692 0 0 0
58 3 -0.4610569950356458 0.3760688423046587 4.9668720344691675 19.213465328505585 0 0 0
61 1 -0.02022521551703402 2.7393554363570956 4.495735732953301 20.06735503043453 0 0 0
64 1 -0.1518152756303043 3.0759110141089723 5.410427717384426 21.22083194758104 0 0 0
206 2 0.1677482919429381 2.3018495383948565 4.054175031911146 22.84246086571381 1 1 0
209 1 -0.155624309318221 0.35845725313885074 6.065655836871019 23.709706635382723 1 1 0
210 1 0.2017065624958277 0.7012807179847322 4.821879386311976 24.30544271388356 1 1 0
230 1 -0.1374303316185184 0.7596609072330468 6.800980720528729 27.500246210561556 1 1 0
215 1 -0.1849029510736857 1.874938709706556 4.783028039637254 25.109029882359792 1 1 0
218 1 0.03118598928157424 2.275027776757357 7.22843546665362 24.755430917850656 1 1 0
221 1 -0.08947172913556342 2.6532052341189667 5.911659435341252 25.326498152822463 1 1 0
220 2 0.1441728450919224 2.183142280132327 3.865875433120436 25.549109440620658 1 2 0
231 1 -0.1021386364545324 3.1713529156364664 6.898268405969057 28.184042176219606 1 1 0
232 1 -0.1819517371898686 0.5445287798758887 5.65745154460378 28.33182314307256 1 1 0
214 1 -0.1453564202659241 1.0360197006739424 7.26499912804856 23.90982914350398 1 1 0
226 2 0.1551409233925381 3.504113947421394 5.859525823442739 25.93941033425211 1 1 0
228 2 0.1241733093379768 -0.044482874268885184 7.127967532986052 26.90226218785326 1 1 0
236 1 0.1790850980554406 1.5593487302681446 4.977404413082951 28.99986070472456 1 1 0
233 1 -0.1429795504225905 2.8840231193465256 5.642675227597144 29.108647653076165 1 1 0
94 1 -0.1627806717583467 3.1340266943417343 6.682845284743773 30.398644772512963 0 0 0
96 2 0.1493871695626015 2.2974277742299396 6.739705583938029 31.020838593489145 0 0 0
245 1 -0.03649252156304701 0.36350186995616707 4.188603439447976 33.06892980978292 1 1 0
241 2 0.1553770368255198 0.9435842817745781 5.4146164717272764 31.408061046335455 1 1 0
242 1 -0.1701258515495938 0.800997794631043 4.426951976859875 31.72044883525222 1 1 0
247 1 0.3454276214438068 0.11856673726321562 5.190317823030553 34.06794992068538 1 1 0
248 3 -0.5125410697995556 0.21354549463600764 6.468730137402966 34.09779073621057 1 1 0
115 2 0.2495831555367912 3.1096378342974207 7.026240933872244 39.72061716767042 0 0 0
254 2 0.2242212439792403 0.04986895545810441 6.333053737474744 36.383859091114324 1 1 0
113 3 -0.3989762543369065 2.410319464442097 3.665327349049519 36.454226256525864 0 1 0
264 3 -0.4657395571871521 0.8664668742503593 5.2584941702102 40.822909660332236 1 1 0
265 1 0.2823424228508341 0.3014506126224589 3.925228973920314 41.054593998785066 1 1 0
125 1 0.3733897644655996 1.6143520612523772 5.895442022917272 41.91873714642822 0 0 0
124 4 -0.4864098796869984 2.276028379671859 6.831574665289689 42.162896215195886 0 0 0
127 1 0.2497897555124348 2.124810108191919 6.58935928967997 43.49953643767268 0 0 0
130 1 -0.06635027968162295 2.71484061010445 5.578103676232271 44.192778717435324 0 0 0
132 1 0.01903346065173708 0.417147827985946 4.320780990766043 43.79142474959844 0 0 0
133 1 -0.146812301186652 3.310408578900077 4.546800878563566 44.877075734416096 0 0 0
8 1 -0.172080679665845 5.734529111549456 0.9017313992602776 -0.07299812533944228 1 1 0
13 2 0.1521138770184815 4.316910191775705 2.316096766794962 2.1834724702328034 0 0 0
275 3 -0.6350435211741378 5.466720636175184 2.426554880134086 4.858367890408896 0 0 1
157 2 0.1621758854840572 6.656234461932904 1.8227735229687676 1.7591353252452686 0 1 0
152 1 -0.2545657963756165 6.668445177617373 1.3859796918281746 2.713520691065783 0 1 0
156 2 0.1756519242335156 5.74796593805903 1.2195932758724863 3.2208216125082103 0 1 0
149 1 -0.1934421443492806 5.927384607039875 2.052438962900986 -0.2855163981033709 2 2 0
142 2 0.1509129055352776 6.092598767366977 3.080884182464338 -0.48056767789141713 2 2 0
168 3 -0.4564365797493705 3.903858652216769 2.570508094705968 8.833316963234317 1 1 0
166 2 0.2236026988490787 4.170464870026398 2.7989936648601597 6.315990798991663 1 1 0
169 2 0.2172789536274087 5.6034418016115515 2.3294443618880956 10.946109368275437 1 1 0
144 2 0.2845422480595514 6.06365451399525 1.799469740961078 5.3629805586797445 0 1 0
175 2 0.1909532505190444 5.2208626397060485 1.6105041603102812 13.179330997383913 1 1 0
179 3 -0.4987066702327921 6.952615232045133 0.5919961253762687 11.868228765477802 0 1 0
174 1 -0.06464056945134056 4.392272331721399 1.6547350338156 12.528934791360076 1 1 0
171 1 -0.1061213379125213 4.6153822104605045 2.0754390388219464 11.2059277169551 1 1 0
196 3 -0.4302259915554245 5.551889893533984 0.26406482021318817 19.92170577534974 0 1 0
197 1 0.3595076772826229 6.73167782953892 0.7721123029089898 19.826690310783903 0 1 0
202 1 -0.174456078237631 7.057022885505826 2.1765969813241406 21.95602460257272 0 1 0
203 2 0.1667807830401515 6.123682282278353 1.8764511017413745 22.308885050979576 0 1 0
190 1 0.1754344187681172 7.23841155612199 0.3087553349082591 17.447373568487954 0 1 0
88 2 0.1266159278695403 5.514520456682334 0.5506207990461562 27.01984174258489 0 1 0
212 2 0.1685963090947749 4.8238076322095615 2.1912600030877756 24.196094033946384 1 2 0
80 1 -0.1714190998348963 3.7906848204813515 2.5070402622392995 27.191404037095083 0 1 0
83 1 -0.1548547250985153 4.961658442574078 0.5921847607095969 26.130661456887513 0 1 0
85 2 0.1368923030377014 6.791531446186383 1.8462939909298495 27.65405147245825 0 1 0
79 1 -0.3593426246150118 6.302566240172782 2.7369420616029836 27.91878364426972 0 1 0
76 1 -0.2237281344696565 3.865810269196247 1.8794630003556627 24.48709016200778 0 1 0
217 1 0.03349833550952375 3.790650962248195 1.5198533194396637 26.0524644570464 1 2 0
87 1 0.01372158660260379 4.793787716350102 2.4262371344596345 28.268572544377196 0 1 0
74 2 0.1573753417213998 6.306667845570756 3.4100100441739114 27.071123871534457 0 1 0
82 2 0.174375572218597 6.791125505477757 3.170784380270315 28.77283023425722 0 1 0
91 2 0.137011552138837 6.566099144000338 0.8260908855539836 29.324559475619967 0 1 0
81 1 -0.27333004164311 4.317352463115008 2.763648073766093 29.77585616501906 0 1 0
89 1 0.01208090684018111 4.532808229346239 1.3218941292901776 29.461850989037107 0 1 0
86 2 0.1516848351074924 5.0511683613472345 3.2473928185809218 30.364949071007416 0 1 0
93 1 -0.2349005562091014 5.765801462798831 0.6942440443852432 30.003677877073805 0 1 0
84 2 0.1569961706191347 5.973750639646316 1.1848591166165499 30.91512252964721 -1 1 0
100 2 0.1608427389813463 3.6488806761636607 1.028760440025645 32.04907009931231 0 1 0
121 2 0.3412313951309253 6.920517094257646 0.7057308129274861 34.97534180819471 -1 1 0
251 3 -0.5857650671131883 6.703680510533089 1.543135492694379 35.48586431080358 0 1 0
253 2 0.2411230230503356 5.889580942950535 2.4399107075205406 37.27293869388087 0 1 0
122 3 -0.4299340655782385 7.030603858982266 1.104284610853576 39.197188441505006 -1 1 0
255 1 -0.1473984016697112 6.209852057910829 3.4225279918806373 37.58267706852395 0 1 0
249 1 0.3679188316299026 7.037886897959369 2.720268306819922 34.78800983376787 0 1 0
261 1 0.2610777507740996 6.713069111662501 -0.006334762909973701 38.72758245273837 0 2 0
272 2 0.2853808414490913 4.176188836556294 2.466996729521494 40.41731895123885 1 1 0
270 1 -0.1351714590492022 5.280818390940538 1.781945021684118 42.98574001696559 0 1 0
269 2 0.1448899622741272 4.61440348991801 1.634176884186461 43.78457034344189 0 1 0
267 1 -0.1450839748049245 5.759642355905107 3.155149797814291 42.57150049266548 0 1 0
273 1 0.007028544959584198 5.638849391677974 0.6590442148543113 42.31089883252388 0 1 0
263 1 0.3035668992849501 5.394739269724439 3.452025867013696 41.09584676095153 0 1 0
260 3 -0.515976162242325 4.07268822304105 3.5096835254271337 40.669161587514225 0 1 0
3 1 0.2273219012338395 7.03803129010246 6.04974262944761 1.8044416931457672 -1 -1 0
139 2 0.18020283653961 5.601784469373822 4.063474091409013 2.683950406082798 0 0 0
137 3 -0.5692209592183588 6.149717648405327 5.4195318722356856 1.086979374361406 -1 -1 1
140 1 -0.1552724101419257 5.996989668612025 4.530894450081165 3.5313139571296146 0 0 0
143 2 0.1523973940214099 5.618963525429834 6.5157836325905665 3.282562215485805 0 0 0
145 1 -0.1149201684751299 6.493605455891942 5.917401536074916 3.3605580862288553 0 0 0
141 1 0.2225840024041357 5.979876029067622 3.7934751159012947 4.694854222819147 0 0 0
28 2 0.1533596958373474 3.769094638184595 6.492249560127776 4.34325495905744 0 0 0
148 1 0.01491571155947009 7.265452708910339 6.410182200630039 4.603324457739316 0 0 0
4 2 0.1492756427317119 3.830652808474042 3.6976181014216367 1.2805462031376993 0 0 0
9 2 0.1675432386536245 5.569460793805102 7.2579592898452185 0.16420738483377484 1 0 0
36 1 -0.05894587333685786 4.843130694030907 5.721664029474167 10.490999910839705 0 0 0
146 1 -0.1701550462307025 6.593615536769222 4.3767332571684525 5.852815097460927 0 0 0
147 2 0.1586159717865655 6.6216338746445755 3.848591317633684 6.773476185493745 0 0 0
31 2 0.1676308774260138 5.59030239153511 6.2819338893362975 8.583192525581389 0 0 0
33 1 -0.12394180040699 4.716562660003307 5.9506242571340575 9.099559848091173 0 0 0
150 1 -0.125713256273552 7.229731968032695 5.628493429252892 5.793785583002119 0 0 0
37 2 0.2139257747506301 5.758542451901967 5.908539755343311 11.01972384277855 0 0 0
30 3 -0.465133738748182 3.6421287547961905 6.0736649016796855 6.8614770506018585 0 0 0
189 2 0.2370655018024594 4.583655093705881 6.388320686846594 15.739316827039637 0 0 0
183 2 0.2174056850245991 6.165045003917521 6.80587554130996 13.789506578024136 0 0 0
188 1 -0.03593529352787149 5.556562087507759 6.813159192022032 15.877958368770607 0 0 0
45 2 0.212064986396346 7.071275919984945 3.9809609214704977 13.060052251630589 -1 0 0
44 3 -0.5037730091954357 4.475571280951856 5.019274239213761 13.587908951390485 0 0 0
185 1 -0.1265601138927874 6.435583390238133 7.0611306453481575 14.790326361947809 0 0 0
50 1 -0.06605968990552356 6.88911821054075 3.9853739679725244 15.17931697062441 -1 0 0
39 1 -0.04753089894012046 3.7124656552042166 5.274457194394512 11.190686019195175 0 0 0
51 2 0.2296898179343184 5.8287761705427625 3.7641454792249585 15.116443680633258 -1 0 0
57 1 0.3561261899916071 3.8723551569952748 4.239874738097434 17.759748348321022 0 0 0
66 1 -0.11048746588118 5.329688419003792 4.552821135162823 21.137673879845664 0 0 0
67 1 0.1879566853145974 4.315774745283558 5.299070963113996 21.814205118380436 0 0 0
56 2 0.2264144534832542 6.951903354596852 4.05802143842112 17.26420316781085 -1 0 0
194 2 0.2459954375712673 5.2887803709413275 6.9394701156129885 18.01165394399521 0 0 0
60 1 -0.04277986949590774 3.9412647150731974 4.231248248984176 19.19300603318755 0 0 0
68 2 0.2000608128401557 6.288828067948032 4.473800767944793 21.582227019974237 0 0 0
63 1 -0.06584701213655055 5.217144242454827 4.06479739310059 19.824922726872437 0 0 0
191 1 -0.09209195549837597 5.950413669539506 7.130858763624586 17.190505493647514 0 0 0
62 2 0.2111264571304123 6.051910955108783 3.7085907514800764 19.275086623217483 0 0 0
54 3 -0.4939981835207071 4.726451023196333 4.120555310281087 16.80857343184437 0 0 0
70 3 -0.4906065754170091 4.9148244167402115 5.691191367330595 23.205809469408933 0 0 0
207 2 0.2048653438391463 6.908174047178217 6.101063368513222 23.052274360089246 0 1 0
72 1 0.2141096892941796 4.598057494419208 6.87618689099711 23.907633634196856 0 0 0
77 1 -0.1745159502381884 5.303076389419118 7.098577124402697 25.146631723210366 0 0 0
78 2 0.1575665572098982 6.151547251711621 6.496847683799129 25.342606629793213 0 0 0
229 2 0.1358464282639866 4.090950071144286 6.812754575449924 27.629590718628886 1 1 0
234 2 0.1314697866984728 6.98595545648121 5.230854137665581 28.296569066743487 0 1 0
101 1 0.2084049116924745 3.9890284336403328 6.890323770342807 33.46153524524156 0 0 0
95 1 -0.2526905153690301 5.544985826630548 6.494836526202502 30.282730119052335 0 0 0
98 1 0.192924523031181 4.330034309705854 6.3019492557976005 31.135839818960775 0 0 0
223 2 0.1594972963621512 6.369853526293424 6.117628305605584 30.81090541405245 0 0 0
97 2 0.1306839767990758 5.403086693810523 6.027521695726825 29.31653752909612 0 0 0
99 3 -0.4595474282966073 4.441234695012446 5.842852438800801 32.488059486363184 0 0 0
235 2 0.1471342999821232 3.693663532801573 4.965856424814912 29.053790254805396 1 1 0
104 1 -0.1056227480705393 3.9379829373066277 6.570486131704095 34.83977527658463 0 0 0
103 2 0.2153173916431188 4.191335805493523 5.586427008120654 35.190525152168114 0 0 0
259 2 0.2291202331234598 5.55559498310871 5.619859647774813 38.73741203972152 0 1 0
250 4 -0.3753457122157121 7.005875840849768 3.981334278085889 35.25556539977127 0 1 0
252 1 0.1854477946827716 6.678584673667779 4.352456806885683 36.53631336144006 0 1 0
258 1 -0.1376758942240954 6.338761188292983 6.15860858247954 38.22496280201 0 1 0
256 1 -0.09412031753700445 6.888730873639987 5.668149485649688 36.99619339210574 0 1 0
110 3 -0.4495822438251229 3.7352073133837163 6.390599383309597 38.01638373777156 0 0 0
257 1 0.1808033660924337 6.310739541251971 3.638120068067931 38.930044753191495 0 1 0
276 2 0.228771354346672 6.8058910287004295 6.950175262060284 40.982206412089546 0 0 0
153 2 0.1896698842777257 6.680480640782949 5.6287274422437585 45.292676088889166 0 0 -1
134 2 0.1383252915651127 4.195138609983333 4.684628637045556 45.39801025733316 0 0 0
128 2 0.1879502118829948 5.361225139487707 6.098344077416513 41.67822085405931 -1 0 0
274 1 -0.2177130402516211 5.97394759602849 6.950317587246614 41.65893304022982 0 0 0
262 4 -0.3711406664245384 6.39601226404927 3.838553395956418 40.21865888518354 0 1 0
131 2 0.1587649179128787 5.307685268767423 3.8762551188023124 43.225100955916886 -1 0 0
129 1 -0.1759677311169204 7.1906441810526935 5.03223655719715 44.59674390647653 -1 0 0

Velocities

155 -0.0008077831844774118 0.0004370025585877939 -0.002306486714296689
7 -0.00023748725329434108 0.00013882201106640355 0.003452473580925194
23 -0.0016312473933670936 0.0016353867151464134 0.00034484275573992267
5 -0.00237568015828267 0.004122752741396049 0.002130751168730496
151 -0.002175158118130107 -0.00973309543886371 -0.014304894803111376
14 -0.000982061078704402 0.0016173859874665717 0.00019444858330221293
6 -0.0034474333587741057 -0.00021985025157501516 0.004920118547152281
21 -0.007168252253271436 0.006035015786277573 0.002523569969323579
10 -0.0003522002078413892 0.000654782920225892 0.0003728471342720036
17 -0.0022001832742828274 -0.0009325839477976266 0.0035058342724586795
12 0.00043489589092489015 -4.948919315392074e-05 -0.00035623834420949385
160 -0.0017820340611281178 -0.006745762251321625 -0.000911580125633003
20 0.004141843760034836 -0.0011942314764894412 -0.004946608249780078
11 0.0005372269371275751 0.0001972534372489192 -0.0021195684159633936
15 0.003106488223767459 0.0027399779114343063 0.010460315124378743
18 0.001688653140344486 -0.0027548031504986163 0.0022253023065391623
172 -0.013117301447934465 -0.005850283426402911 -0.009613432449565343
158 0.0030618791609155933 0.0009422444078362141 0.0028388030263335326
164 0.0018652284700175342 -5.179496206618552e-05 0.002878339776021728
173 -0.0020054406132204937 0.0007503468201381726 0.0012596399370800526
161 -0.00034668638240920925 -0.0010579995146142215 -0.0013628299062085985
163 -0.0012450590972546984 0.0008128593456841583 -0.0019992503559085797
165 0.01657910114630484 0.006835941020496613 0.0035541211322549365
167 -0.0011413038149982364 -0.0003150984037355279 -0.0017237262839429372
170 0.0073675482459155065 0.0006026110210264379 0.0017191122364655083
162 -0.001861937492471473 -0.0009698676689415534 0.0012369724475040588
176 -0.003556649742775395 -0.0006310322162778138 -0.0012541119854350006
178 0.00047642337402642286 0.0018976529162379983 -0.0016210494686765618
177 0.006646867180048182 0.002001408896280871 -0.000985582583819115
180 -0.0006004186428640492 0.0014598460318602853 -0.0010803757185101123
181 -0.0005726102731948256 -0.0003851629492208378 0.0015245462218734566
187 -0.0006405196897420543 0.0024244133006507446 0.004034377689792816
186 0.00895264384093315 0.0035971324720542905 -0.007693349634417054
184 -0.0004794934184078248 -0.0014591910806466897 -0.0020534422559231034
182 0.0014685626138519557 -0.0007226874304092238 0.0004114182082173776
192 -0.0004747556969102945 0.0008802797786037046 0.0031674228032381358
193 0.0009011924930481898 -0.001373836167135751 -0.0014487118399566905
195 0.0008285827263753217 0.002215762732181608 -0.00021599526006833522
198 0.0017094544563262468 -0.0015923753242394283 -0.0036626969336147055
204 -0.0018365084297255585 0.0030552585478851434 0.0004222162074972635
200 -0.005177479835626539 -0.011086239899837683 -0.014987578804260894
201 -0.0004383836456146481 0.00037098850602858356 0.0002390265112143979
199 -0.0006644652148994102 0.002926054347894586 0.0006554692718399907
69 0.006558011052484722 -0.00025257425902037236 0.008841252670706167
211 -0.0024351320224145637 0.0010179163081980177 0.0073088185409846025
216 -0.0003846323461977237 -0.0004998350559566556 -0.008956359332455874
73 0.004231077218497088 -0.010616279965116885 -0.002800990681472788
213 0.002094876079635078 0.011019031241943606 -0.0030673441577649327
224 -1.2503378541362517e-05 0.009623230212156697 0.0038993395650240487
219 -0.0004965648399890497 0.0014753402930673552 0.0010443281114634467
205 0.0005297324112695175 0.0009696751168003985 -0.0003820446410130682
225 -0.0006391399810011053 -0.002203200190329629 0.0002232029020308434
222 -0.0024289124729524694 -0.009738033503826318 -0.0009991789869182013
71 0.004945071522172704 -0.003332878185904656 -0.0012988351074353732
208 -0.0002531675697622287 -0.0020233833777089697 -0.0028252086578304824
227 -0.00043331558838913985 0.000728872669567565 -9.805488850124451e-05
90 0.012042383552718833 -0.003936690114008551 0.011427742890551899
75 -0.010526556706236142 -0.000291134006947484 0.0036404685105895984
92 -0.00013525137833590449 -0.0019101197267927723 0.0028966707283130896
106 0.0028073075859330198 -0.00802940371755424 0.00783453972492152
238 0.0010334983351764188 -0.005882518648916373 0.010728368377292553
239 0.0012216927653913763 0.001450104334417164 -0.004392210157731848
240 -0.0009815340314707976 -0.00422746410668016 0.0005440622123516511
244 0.004487046001233713 0.006449939772540408 0.008087449860762628
243 0.0014875477153400176 -0.0027911514415903966 -0.0018097753076936722
246 -0.001568974786905945 -0.0007128868385551061 -0.002104410953838057
105 -0.000846259088721091 -0.0019437030786357413 0.0030943923792043767
237 -0.0007347390455498963 -0.0017506058685363651 0.002352724293720814
102 0.0022425836915009236 -0.0011999485154346144 -0.0014086335717007246
114 -0.0021544676192997345 -0.0019525494186243449 1.698460552996884e-06
108 -0.0022422590491263206 -0.0016490606708084226 0.0009933018075568188
118 0.0013074862667404256 0.0017278121360787659 -0.0020342908759085334
111 -0.0007844915247753815 0.0033778316192959487 -0.00023990237160720265
112 -0.0007537532519300761 0.0021089905545591675 -0.0011901639455415133
116 -0.004795168292768855 -0.01642187168447126 0.008785422642468642
109 0.0021433990326222793 -0.0008065977657813254 -0.0014967348680833324
107 0.0005803929137190214 0.00329692568491949 0.002357852261481818
271 0.0012331785330111117 -1.7535019905090848e-05 -0.0015874053311620332
16 0.0012450713397301214 0.004319536147575695 -0.0010242490688527012
117 0.0012452194279819963 -0.0010780171303708221 0.0016888772364509676
120 -0.0010592887263401536 0.0011155822459989985 0.0015822486463515197