LAMMPS data file via write_data, version 2 Aug 2023, timestep = 1000000, units = real

276 atoms
4 atom types

-0.38015205118988504 7.624308051190382 xlo xhi
-0.38015205118988504 7.624308051190382 ylo yhi
-2.3691370650526373 47.51527906505571 zlo zhi
0 0 0 xy xz yz

Masses

1 12.0107
2 1.00794
3 15.999
4 14

Atoms # charge

19 2 0.1265681902388607 1.5823836872339805 4.000115734706664 1.1688688553200852 0 -1 0
17 1 0.02987278067442202 3.152790706469351 4.818900101686739 2.5968490607240007 0 -1 0
6 2 0.1283530354683611 1.3582043664081211 5.670698322504972 1.9857320722630813 0 -1 0
11 1 -0.3114352282859086 4.494044318714725 4.711215632352278 1.8691407771961819 0 -1 0
5 2 0.1071800584371174 3.2117827166633326 2.508048679666411 1.59216409118237 0 -1 0
149 1 -0.1271741303616676 6.878907144972018 7.435620323167171 -1.2506524679556417 -12 -11 0
14 1 -0.312296387167551 2.086416768892893 5.008915901813142 1.4192982910656302 0 -1 0
1 2 0.128434081778902 1.374613588881687 0.8952675243586765 1.592299137893733 0 -1 0
8 1 -0.1476133486688703 5.800574373477412 7.40125096379011 -0.8023583357780575 -13 -12 0
137 3 -0.595387585441708 7.441847374382033 1.6494404744984053 3.215015378836691 -1 -1 1
18 2 0.1093369131887217 2.4771434501587497 5.460817205176883 0.5461990082362855 0 -1 0
7 1 -0.114319927687619 2.6159283700023783 2.4600682300371646 2.486380596376903 0 -1 0
22 2 0.1086822452788261 4.381825981918691 7.2488825373793 1.871730663150089 0 -1 0
15 2 0.1126357726571633 4.687686338241471 3.7439635053783977 1.320364714760633 0 -1 0
157 2 0.1344259049940563 0.12446151964115293 4.329707539627089 2.9119841971174543 1 0 0
3 1 0.2716766153800606 0.6618441457493363 1.4934958461840577 3.589621208867144 0 -1 0
2 1 -0.1292035139335122 1.5441889152244823 1.571256088580428 2.5082293523396855 0 -1 0
13 2 0.125016057450092 5.361788455357243 4.808643558012804 2.568590847010153 0 -1 0
142 2 0.1062792692826705 -0.1621691423500852 7.373887013293711 -1.8090892309466962 -11 -11 0
10 1 -0.1009055928727286 2.744739137556467 3.6366473906053463 3.3802310435134633 0 -1 0
24 1 -0.1106060095759306 4.036479284553526 7.2499527176782825 2.886632268658743 0 -1 0
20 1 -0.03391631765820553 3.4780130165263605 6.01772417825299 3.3900975199339713 0 -1 0
28 2 0.1544021274040012 4.670739226108477 1.1973927953490462 3.0898585489677 0 0 0
4 2 0.1126317154614482 4.6660846380381695 5.5662608553883475 1.1970819081583088 0 -1 0
9 2 0.09360507015186428 4.812523459482743 7.32947250401938 -0.3581492424318671 -13 -12 0
26 1 -0.1302579680857119 4.421074272887 0.3419459939451781 3.6880436431718886 0 0 0
154 2 0.1455119476671671 1.6768380044760973 1.8564578404032752 8.544986780571636 1 0 0
35 1 -0.1112393854480693 4.732714420557569 1.4664212814345976 8.060149343888572 0 0 0
30 3 -0.5232178782956322 5.0707702678764806 1.5575610763650383 5.6049170133968715 0 0 0
32 1 0.2309118776146372 5.566675243328725 1.7833973948439494 6.9957243259909845 0 0 0
39 1 -0.04390590625162744 6.310232427960224 2.6313046730205096 9.694390932434503 0 0 0
161 1 -0.106973554812711 3.3182332291614327 3.930475135942233 7.945997607760413 1 0 0
162 1 -0.09201974842250031 4.0658395638893685 5.135358024999293 5.701362036459068 1 0 0
25 1 -0.1497302962521463 3.8404936825975575 7.3214394680765515 5.931346584501169 0 -1 0
23 1 -0.0883033071464312 3.1486960165983575 6.111064910284827 4.965305576713996 0 -1 0
163 1 -0.1550171262734846 4.194590214857223 4.693192893163544 8.729828106440392 1 0 0
159 2 0.1269952443763613 2.660044401055857 3.233316406529251 8.518514678321043 1 0 0
166 2 0.1996735054914686 5.759532540250977 6.487964562683788 6.21118732873499 1 0 0
167 1 0.2592982887571881 4.851125886513199 5.875705944653422 8.194490226334274 1 0 0
33 1 -0.1284276042820822 6.802809859061054 2.525086960348052 7.245923787927277 0 0 0
27 2 0.1460678729761157 3.1810662355219024 -0.34764058772642836 6.671024930361453 0 0 0
146 1 -0.1532755611650177 0.8525812393933032 0.1221046409858475 7.786087595211363 1 0 0
34 2 0.1527625615030005 3.7446232704043068 0.9972500211482154 7.816794810643495 0 0 0
155 1 -0.05087932426561529 2.085510430333568 3.3662252974329596 5.844379288290469 1 0 0
147 2 0.158150343689917 0.9076121706533649 -0.2920314193490783 8.754003169766715 1 0 0
29 1 0.2813169892098625 4.468541438741449 0.5555695243040254 5.128670677279353 0 0 0
158 1 -0.002052842764107311 3.1400844430175723 4.1788722393793005 6.5128286694049535 1 0 0
36 1 -0.07863811558296444 7.11530283166225 2.942929506717386 8.534305578576316 0 0 0
164 1 -0.1237978084038691 4.866985369651156 6.078797150178751 6.6175387737040285 1 0 0
21 2 0.1552513161327611 2.0832244462274976 6.064389691048857 5.151057793368567 0 -1 0
31 2 0.161067506705015 7.446024483522436 2.6919491453413746 6.427758315299428 0 0 0
148 1 -0.01310239399707086 1.434550279930406 2.04302832332735 6.2091683677467415 1 0 0
150 1 -0.1222699510513676 1.4540511415297672 1.3917075936429704 7.551169811333125 1 0 0
168 3 -0.497105514535255 5.5630183607950485 6.546763233940201 9.005373745219106 1 0 0
160 2 0.1343633828961462 4.74430061164709 4.55551088265447 5.098029014869754 1 0 0
141 1 0.2186909966189781 0.4419782805401431 7.387645985573238 6.641398576653648 1 -1 0
144 2 0.3048365241761335 -0.026203789323342108 5.637220581856235 7.549531144275665 1 0 0
139 2 0.1584187965963286 0.2587669309475418 7.1724271308019185 4.576313166337552 1 -1 0
275 3 -0.605364417412792 -0.12116336837348735 6.038350945471708 6.689318292802817 1 -1 1
37 2 0.1305214370643852 -0.017934117041367714 3.543655736602271 8.670323735797785 1 0 0
143 2 0.3111539507801654 6.832537868942755 2.0509476111271407 3.9296305567440353 0 0 0
38 1 -0.04561475500917971 5.06081192658975 1.845765554129203 9.460762048907469 0 0 0
140 1 -0.1408552383983024 0.5533938655257251 -0.12815937204663364 5.351450522504508 1 0 0
145 1 -0.04894325459926969 0.8615463541914203 1.2651887371543022 5.087118486980144 1 0 0
165 2 0.1540390521612516 4.144179893059786 4.462399415545801 9.814817679308875 1 0 0
12 1 0.01480128028683614 1.6020538996748108 3.8063814692555757 4.452996447746378 0 -1 0
156 2 0.1449257107917412 7.504429981448848 4.293388878059641 4.734576464849313 0 0 0
152 1 -0.2117820492862025 0.3842169467677624 4.138046685482787 3.9927063714112467 1 0 0
172 2 0.1618412485050084 3.0182490145748684 6.934046552316631 9.932653179512302 1 0 0
151 2 0.1470445215459402 3.6498280955426043 3.605783565300051 3.9385950187120953 1 0 0
183 2 0.1800851925501585 -0.33994808876830007 0.9114153939496361 13.745735220271847 1 1 0
47 1 -0.09741756726417149 2.5715248118111647 3.1005695895971153 12.994801759192312 0 0 0
170 1 0.2252434399874663 5.142323146003422 6.579802456994356 10.348227364088242 1 0 0
45 2 0.2058998558599028 1.7558130136268826 2.837534016506232 12.243151925944371 0 0 0
179 3 -0.4838772584809183 1.141423484705433 7.239715440742056 12.234948840696159 1 0 0
189 2 0.1798279251228335 6.1395579974661425 1.5427029975114435 15.32595508348085 0 1 0
46 1 0.1637551877541718 3.945217609902074 3.2759425236814237 12.902555851417766 0 0 0
52 1 0.1910266694094067 3.9955198974826365 4.319881129402139 15.405677511054655 0 0 0
51 2 0.1723591734777103 0.8777108518045738 3.3155993502059524 14.439137393305874 0 0 0
54 3 -0.4576982496467461 6.994833886455595 5.190720384679824 16.012844813740426 0 0 0
44 3 -0.4910194422214137 7.26388026608486 3.3547119619173436 11.670460058820282 0 0 0
174 1 -0.08157217814560662 6.041796274581282 6.637677303491499 12.68153969764804 1 0 0
42 1 0.3974855593020697 6.267809311142035 3.0208211894737276 11.152374100649308 0 0 0
48 2 0.1930297701143346 5.608544141273732 4.183243691552745 13.918525847729448 0 0 0
175 2 0.1924320279768045 6.89438382723711 6.567970155188 13.28579649370903 1 0 0
171 1 -0.09431424675413302 6.228580725621212 6.516021124079184 11.260744472865296 1 0 0
43 4 -0.4449523174373529 4.81850427074579 2.6792236082261303 11.743632389913516 0 0 0
181 4 -0.4381322119923403 2.5429725115293205 -0.23210598068034227 14.164218384132308 1 1 0
180 1 0.4144828836494979 4.081443372702842 7.460161644215873 14.498545656710956 1 0 0
53 1 -0.09467971368957787 2.581961589908936 4.017035954134659 15.446259284028134 0 0 0
178 1 0.4441018622254592 2.197569475152469 7.356524237529541 12.78651319978405 1 0 0
182 3 -0.470520766283291 4.694199549955025 7.576998150045157 15.486966307167538 1 0 0
184 1 0.1777462965138347 1.4968345751147658 0.5020359254368935 15.076092871555382 1 1 0
176 1 -0.02927932007253806 3.544238969664434 6.886792885242867 12.195630142462647 1 0 0
177 1 -0.05296375552120039 4.640736081676926 6.889663982381589 13.195657896513117 1 0 0
50 1 -0.08478616044589246 1.890660861644462 3.5138558777281665 14.24404939459734 0 0 0
49 1 -0.1454784380811635 4.4950667616944795 3.945350875434454 14.104523558628461 0 0 0
185 1 -0.1218564369991333 0.22653533923160118 0.9833075882666955 14.747597334372148 1 1 0
173 1 -0.1098959714886877 3.789828604490861 6.853630800817337 10.748528436208789 1 0 0
169 2 0.1989800931818552 7.299282879512671 6.216634662271018 11.003513895891782 1 0 0
41 3 -0.482890421736845 3.026935113097728 1.4565005559637099 10.706771287770803 0 0 0
40 1 0.3991081343105394 4.152332075176198 1.8844093852363444 10.685942469258997 0 0 0
188 1 -0.07256727002008811 7.164261488652562 1.3296697525167034 15.70264593639401 0 1 0
68 2 0.1548330583726103 0.0288281356050748 -0.24208591977079058 20.6290350191633 1 1 0
195 1 0.3964539256558157 2.7972997306663174 2.182109762358084 19.238118649841194 1 1 0
66 1 -0.1527523426734609 7.246002340107081 7.31019751330085 20.078394847739915 0 0 0
190 1 0.1626533950996256 0.9000346301542936 1.3281001355852142 17.456583530337152 1 1 0
67 1 0.2568579633439321 6.027066427544936 7.038227883712984 20.74373051861782 0 0 0
59 1 0.41954738098589 3.994374235370545 5.358710715077786 17.88462196111704 0 0 0
194 2 0.2174286687642598 6.685083207289273 1.836977910204841 17.70542316223675 0 1 0
201 1 -0.08891268118546571 3.885978989683691 3.632948750534413 21.296335602743177 1 1 0
55 4 -0.3816588607752421 4.666365248900824 4.987814253392093 16.539672302665018 0 0 0
191 1 -0.09098396678126269 7.524205173226375 1.4742225213573685 17.027220482444896 0 1 0
193 4 -0.4337381602874233 1.3207947341185722 2.054203399763516 18.703647661625038 1 1 0
60 1 -0.02829174366835302 6.330061724365456 6.28390452206951 17.99116568445191 0 0 0
200 2 0.1661795017791906 4.873774225673372 3.4629294081403668 21.05429777569342 1 1 0
62 2 0.1876790435336017 0.44779848565987623 6.80429535097829 18.42787862143726 1 0 0
63 1 -0.06192503366674484 7.454528223684263 6.949074225794433 18.743160795191542 0 0 0
199 1 -0.05165864226417111 1.4166767245230651 3.5342200386980576 20.633919238441745 1 1 0
196 3 -0.4702360326419691 7.291760007997592 3.2466114289702355 19.444734393373892 0 1 0
61 1 -0.01905290001989174 5.051308610587864 6.047111730398675 18.740985395619596 0 0 0
197 1 0.3953660387191559 0.4186696396689491 2.939792618957238 19.596635648522845 1 1 0
198 1 -0.03322338867565448 2.8534553150470514 3.15398766262351 20.35651461680876 1 1 0
57 1 0.4289598709127738 6.1085412178691865 5.678126135331301 16.63827719153319 0 0 0
192 3 -0.4342330238424076 3.7181694268130077 1.5518808190809996 18.7898235403206 1 1 0
64 1 -0.09172417244124953 4.870121858312404 6.450108330193688 20.11579444291124 0 0 0
65 2 0.1914063644457516 3.936109883338327 6.304347219904359 20.685272996526184 0 0 0
58 3 -0.4516633549288488 2.8831250746758292 5.2192637175833 18.289622622615642 0 0 0
69 2 0.154903297616258 6.274735618958464 1.8780486437375217 21.824785885307666 0 1 0
70 3 -0.5130695848346328 5.808192239713647 7.218833379001566 22.074990404077628 0 0 0
204 1 -0.181098139440858 3.602491846967477 4.4839110515215586 22.35307852639691 1 1 0
186 2 0.2340706258080419 2.724958154957485 0.5853982654640898 16.764597273158937 1 1 0
202 1 -0.1396919708988872 1.1632370515186448 4.484179330540343 21.651080732130985 1 1 0
203 2 0.1649322327555804 0.1426362034087707 5.028343261179139 21.645496817970514 1 1 0
187 1 -0.1509358114765479 1.7438278791604134 0.79780937391308 16.428011820506082 1 1 0
205 1 0.263607212557946 2.2384465369364803 4.942931128652166 22.519441261826827 1 1 0
56 2 0.214101850329122 1.9588884866384473 4.06733389747722 16.359106000865623 0 0 0
212 2 0.1267135848709994 0.3141096488695483 2.327693413974261 23.70325681070002 2 2 0
225 1 -0.009291454948978685 5.430426152101752 1.7493402105331106 25.899236645261347 1 2 0
221 1 -0.0963334075679817 4.601354071577808 7.21141296098963 25.78345976629233 1 1 0
227 1 0.01012014150575929 5.359975035560348 1.262575044969709 27.447000125713917 1 2 0
83 1 -0.1113305810744493 7.339715908748088 0.2851594987844589 25.31371603340329 0 1 0
218 1 0.02424550320951005 4.5374869845536105 0.5588653788723185 25.308922525346965 1 2 0
219 1 -0.3206501484795706 4.843080361872609 3.249423360408707 25.44167748498323 1 2 0
86 2 0.1096598779130079 6.366298167580642 4.973459830959309 27.9904755990186 0 1 0
213 2 0.1264521457809053 4.589730501434252 3.288865037884816 24.435390348356954 1 2 0
75 2 0.1368056758987061 5.446563914340803 3.467765146182551 27.507206302845425 0 1 0
214 1 -0.1018621706816409 3.577122703052175 0.9214157548852506 24.28959992649496 1 2 0
228 2 0.1111923469847668 3.287220844688293 1.9376958238587059 27.488476180228865 1 2 0
217 1 0.03600001431923593 6.909584825266547 1.7252245119422045 25.42377393325447 1 2 0
76 1 -0.1815866389557021 7.2174748236636415 2.17997192655445 23.95424233923256 0 1 0
220 2 0.1199105582315618 3.5988875953110706 5.32452654167789 25.470930945777678 1 2 0
215 1 -0.1641923614886218 3.6774891889107852 6.292270421262901 25.138893730070293 1 1 0
226 2 0.122162629691501 5.358895442764065 6.847245688367046 26.476575251271008 1 1 0
73 2 0.1194776942182847 6.941512399102491 3.2393526895876907 23.82857111136364 0 1 0
224 2 0.1194641765367459 5.597592625900871 4.052650440264829 25.479678539248283 1 2 0
222 2 0.09707652690929125 4.085323361752085 3.649466514594069 26.232880808114697 1 2 0
216 2 0.1143047430970559 0.8227555288213744 1.918095419661305 26.130009430291622 2 1 0
206 2 0.1412863723652416 4.373094777921625 4.7634696035362944 23.044518895304012 1 1 0
209 1 -0.1210060667465017 2.8607037209482953 -0.04526097464125539 23.558845579602366 1 2 0
210 1 0.2166012820826212 2.767077703345269 6.610532030627988 24.052489738500494 1 1 0
88 2 0.1126917727867357 -0.23716051104329808 -0.16169093198459406 26.1944779982867 1 1 0
208 3 -0.5285087397209799 1.8231658118267378 5.638656761904544 23.528918655379606 1 1 0
72 1 0.2560820824502958 6.4849934671616785 0.004638339151622817 22.971350358054046 0 1 0
230 1 -0.1160372379474118 4.057929805311305 1.4654106022878168 28.006266491525167 1 2 0
229 2 0.1123081167650891 7.356699125264337 0.5039962535305256 27.79099872202185 1 2 0
77 1 -0.1303919539782343 6.975535136738497 7.477243023347029 24.238019647751383 0 0 0
81 1 -0.2137116157913352 6.393807573887915 3.832209798297529 28.08764758241994 0 1 0
211 2 0.1250468050121751 3.5606562236611046 2.00666950222917 24.029640550305746 1 2 0
71 1 -0.1612332156423038 6.571135762527331 1.3933494159446629 22.770696543740378 0 1 0
80 1 -0.1633400147856216 -0.22973755856608255 2.3635701248130676 26.420830745588177 1 1 0
79 1 -0.3291898565223436 0.8741568125738877 3.9144211755995073 28.097874770402967 1 1 0
87 1 0.02915228422930283 -0.3635060761550179 3.268937016777964 27.48303777313504 1 1 0
78 2 0.1488009217820745 7.063339254623483 6.403160757674392 24.242863322176714 0 0 0
85 2 0.1080763419139664 1.4699394939955128 4.41817789490534 27.26907362432196 1 1 0
207 2 0.14318330081124 2.160470596768659 0.24605004949984888 22.705334666102672 1 2 0
231 1 -0.1084257769154429 6.362736879504466 0.6477125293511035 28.244429734110856 1 2 0
82 2 0.1070733528322191 1.4954794852682893 3.125267146247074 28.5150143742633 1 1 0
105 1 -0.08043612742907023 4.482532394510977 6.78698618437684 34.822455155487305 0 1 0
98 1 0.2519839596896931 5.705071503974674 3.2937969742529085 32.40611222868155 0 1 0
100 2 0.1628391294757424 5.881646166935183 6.053406056317347 33.192664407789124 0 1 0
99 3 -0.4778713617367177 5.510058176166163 3.2525770764431954 33.725998712762234 0 1 0
232 1 -0.1605294023577595 3.7518146701186232 1.025608373902198 29.35359447111523 1 2 0
94 1 -0.1600375510879811 4.710423754456596 3.804092716843436 31.525712960574122 0 1 0
93 1 -0.1095321854897221 7.092450530153139 2.8423928199411157 30.45506794202657 0 1 0
97 2 0.1628152791983478 7.605891441615763 2.0650518131860287 32.366442104726175 0 1 0
95 1 -0.1395896878119134 6.93132895758907 2.6904792635987613 31.815280710870905 0 1 0
235 2 0.1266209783188388 6.754485838076774 -0.3192062747556035 30.15635281969502 1 2 0
84 2 0.2805685165251733 5.045418176784842 0.5654085841905393 32.17481972481497 -1 2 0
241 2 0.1561536933322271 2.961386589841303 2.0283007964702904 32.74052598317276 1 2 0
236 1 0.2193209880867421 4.701094016705703 0.38865361382377506 30.158211175182526 1 2 0
89 1 0.02512659497921926 6.180248428645816 3.5436053875267723 29.55692678352636 0 1 0
244 2 0.1640479539142655 0.9118139449591569 5.445881488629919 33.06942881183065 1 1 0
238 2 0.1226455226422183 2.7716356137064877 5.882567762598893 31.42550555915272 1 1 0
96 2 0.1321262264171705 3.770065741405432 4.1640477073946585 31.862650385811722 0 1 0
237 3 -0.6095953246741328 4.399467270756604 -0.021919527612996592 31.539861122242986 1 2 0
239 1 0.2040334951577629 3.0402181018751966 -0.04602543712391338 32.16904788014092 1 2 0
233 1 -0.1452540981034405 5.9817247712369355 0.18310662666166488 29.542898452198354 1 2 0
242 1 -0.1600971761649986 2.53459483306025 1.0479188809783888 32.89593842364276 1 2 0
91 2 0.1178651296087944 -0.024794968876710843 2.4706780278768457 29.89628050411054 1 1 0
92 1 -0.1152965925015422 4.967920688096469 4.0081055463297455 30.124848751696522 0 1 0
248 3 -0.470412868107163 0.768139716070614 2.946597767229159 34.71632618251185 1 2 0
240 1 -0.1568334245879543 2.434276495821267 6.699279581068469 32.04551402399963 1 1 0
243 1 -0.08810603585778753 1.4093761443523591 6.421164609133792 33.06726951860011 1 1 0
245 1 -0.04933489327965591 1.4315813935416415 0.8225115100759162 33.83733114976178 1 2 0
246 1 -0.03767201232139313 0.9639447555203082 7.427064227245825 33.97972741913901 1 1 0
102 1 -0.1067247012718417 5.171806570906732 5.785161617812787 34.06080497113447 0 1 0
101 1 0.2387483446914238 4.9585262406682595 4.413671111236476 34.32031227824557 0 1 0
234 2 0.1207567737218419 2.779635519185417 1.1294916529650052 29.757446364905253 1 2 0
106 2 0.1664936049805469 4.664521275121933 -0.23629935993198328 34.64434974414044 0 2 0
247 1 0.4162716393547412 0.6384506577121061 1.7435217933722353 34.7742545066191 1 2 0
90 2 0.1036193982052885 4.249030423798379 4.568199564214004 29.518771278637452 0 1 0
74 2 0.1104645670615868 0.7226060518108044 4.706505022698777 28.872640316480258 1 1 0
223 2 0.3199765650804142 2.1906024687955377 3.1500146786268055 37.20237674492812 1 1 0
110 3 -0.6201165455136812 1.9277890732114433 3.9954125919344854 37.79865440250046 0 1 0
115 2 0.2436456003340283 0.9675341465474547 4.708278070066004 39.487644348341036 0 1 0
252 1 0.20085832767634 6.7486598001732645 1.2815047358506204 36.429758396683596 0 2 0
109 1 0.4026782705144399 2.248228020612631 5.102914371847803 37.2153295693422 0 1 0
264 3 -0.4650352924667369 7.39049991314104 2.9713477532171853 40.45266488101332 0 2 0
262 4 -0.4096464387206718 5.370879312800049 0.7597802492727355 39.80884200387864 0 2 0
251 3 -0.5331592591870279 7.419827978458336 6.337352362070676 35.485629755851306 0 1 0
260 3 -0.5662405759048875 3.434149704780734 1.7491171974969393 40.724698888652384 0 2 0
116 2 0.1953318574406869 0.9319802313676822 1.0729417561241275 38.75497309839798 0 2 0
112 4 -0.4145382430792561 1.9459472154055395 6.495853635163288 37.623375754603885 0 1 0
255 1 -0.1790062716378842 5.691122523971276 0.5186085993747575 37.20527186443702 0 2 0
114 1 0.1855128067777224 1.0497990113601603 6.837747431460486 38.75857578820715 0 1 0
108 1 -0.06647278710926505 3.472593842831503 6.586994031206195 35.81515817175557 0 1 0
120 1 0.0192389448576623 0.23887861065351856 0.5007399838317569 40.564194309954146 0 2 0
119 1 0.1369708525940447 0.37346757918412554 5.917979132170975 41.07776499375133 0 1 0
256 1 -0.07966630944757309 6.844736909833976 2.64573072539947 36.86582231053468 0 2 0
107 1 -0.04294887716140811 3.1255367016991373 5.127816953978097 35.9755002527005 0 1 0
258 1 -0.168538001844234 5.722661463349628 3.2756087556914553 37.513826414445376 0 2 0
122 3 -0.5203285771716256 6.345150063744829 5.774295974081347 37.96786176294681 -1 1 0
261 1 0.3316180153136868 6.097830172551137 4.646273146817229 37.73807562952952 0 2 0
259 2 0.1755854394077282 4.805262569364563 2.805354752879552 37.90275343777182 0 2 0
113 3 -0.495901903212116 2.9721676690155374 0.7779455326297489 36.65334248536587 0 2 0
263 1 0.3972110803039437 4.733510670253659 1.1313889053904793 40.862868683583855 0 2 0
111 1 0.3760150781697674 2.8357759284832937 7.579461983516812 36.68719904638995 0 1 0
117 1 -0.09256067773720141 0.6554165360622404 5.727971630410144 39.69358763418248 0 1 0
257 1 0.2248502084111736 5.46233977088938 0.6939733252983034 38.55366561128933 0 2 0
253 2 0.1936542976465367 5.244199403636946 -0.36934757162080506 36.77263539943726 0 2 0
118 1 -0.1117922188120574 0.7927715770978803 0.11875097488340353 39.271819347622994 0 2 0
254 2 0.2285567805795773 7.610284379734317 3.3418843779241834 36.559099401911354 0 2 0
250 4 -0.4957292862553556 -0.21002804699705827 0.788978149551991 35.59291126740882 1 2 0
121 2 0.3493832260233942 7.024173663308441 6.374188327876497 36.835558802645835 -1 1 0
272 2 0.3210302131856358 3.0925109762879988 2.053348595898186 39.807917204985856 1 2 0
104 1 -0.1186954377542854 3.8792909064403434 4.101751266182372 35.250769159691785 0 1 0
103 2 0.1911540690494989 3.5230348853454854 3.058751275652962 35.45610208845201 0 1 0
249 1 0.4236618484158318 -0.09599837021022944 7.420979605154455 35.146493638625046 1 1 0
265 1 0.1202492336798376 -0.2881596060107326 1.6386807806341124 41.25829429604573 1 2 0
135 1 0.006748229287104586 -0.26252187996418974 0.7643555832116551 43.86739457427505 0 1 0
130 1 -0.03245057499517685 1.4496958343836264 3.488875184815281 43.83604910727949 0 1 0
129 1 0.1370749890696544 6.536938518996241 3.3452766198689563 44.31543715164433 -1 1 0
266 2 0.1333665390618313 1.3624170014088253 5.659308673643105 43.58918832213676 0 2 0
134 2 0.1109539697737344 2.7125998344476607 2.2345132317842986 45.04966663828867 0 1 0
136 1 -0.1170576157093891 0.9721866256981633 1.0323954677722733 44.60100486094767 0 1 0
138 2 0.1083948009233903 1.463329052596254 0.30234177872142964 45.23609488765692 0 1 0
127 1 0.05028335066275458 1.1572177099618088 4.695790029047107 43.164200256952114 0 1 0
133 1 -0.1140101158911341 1.7563830037433887 2.243210274879741 44.534128095126945 0 1 0
153 2 0.111343860308117 6.603510615785768 3.3749921623534123 45.37552307861036 0 1 -1
132 1 -0.06318725112296505 6.934628637030588 1.9494040740157965 43.829140990916684 -1 1 0
131 2 0.1718655331259974 4.573321804529497 1.5310796407088596 42.97247745172082 -1 1 0
126 3 -0.5381957451275252 5.768304821128821 4.1506816620115385 43.65155491107657 -1 1 0
271 1 -0.002900994388840662 7.5020544691717665 -0.22311074666970954 42.807685496339246 0 2 0
268 1 0.005038329994967741 6.923421641475182 1.1518462820373707 42.47984880135408 0 2 0
16 2 0.3152827002275711 5.782823100748591 3.925055801623169 42.580583326439466 -1 0 -1
274 1 -0.2247980670274559 4.383567316108134 6.285465485031576 45.11331333581067 0 1 0
124 4 -0.4083251330129006 0.6170203781027296 4.654997447925057 41.90748712495791 0 1 0
276 2 0.1163388711470215 4.382839386512292 6.8681240399980785 45.99952740879152 0 1 0
128 2 0.1522794383851223 4.363167976592312 5.1348001830474415 45.3329649713847 -1 1 0
273 1 0.03493422677746617 4.5968991449821734 6.8684244999922495 43.842482032879644 0 1 0
267 1 -0.1357726047514875 5.171156222331611 0.8872869363919458 42.255194862683155 0 2 0
270 1 -0.09854494290909768 4.837981862167563 7.402451676085713 42.630068471693576 0 1 0
123 1 -0.02273427706133886 0.06267256809540295 7.30068500576791 41.47918434135289 0 1 0
269 2 0.1785536474626545 4.678831300663849 6.90801472883227 41.67348993532501 0 1 0
125 1 0.379832344484222 0.10864888447313525 3.4612166590168725 41.31208701969598 0 1 0

Velocities

19 0.04080841429927783 -0.008332747239796037 -0.007994664649967138
17 -0.005457679753463606 -0.0014402966889976983 -0.006265415075547005
6 0.01949745528277996 -1.8693922631893274e-05 -0.00037066303354791274
11 0.005150481266435343 0.004109628588602811 -0.008717404943521242
5 -0.020640669927709018 -0.01391345903970661 -0.0004221067269993803
149 0.0008712195974622832 -0.011074263430805512 0.0035908925128771917
14 0.014108275299934364 -0.011977229598642399 -0.0033847446472288706
1 0.009013573301163895 0.015441209750119136 0.02507525267946592
8 -0.0020752507664453888 0.003305466246785987 -0.008357393609645537
137 0.0055761278787753695 0.0023990451464899827 0.0026309608966142836
18 0.032614165290249304 -0.014899129638279794 -0.018226682730277857
7 0.005720553303918766 0.0034932143519813227 0.016254661113250475
22 0.026425164804500065 -0.026988440579793663 -0.015342260868630098
15 -0.002082703087362681 -0.0011497869868112214 -0.012855190763862864
157 0.015283656540116417 -0.0063498048959500205 -0.006622494554008286
3 0.0012296791277623036 0.0016395588040666537 0.0032613867520080854
2 -0.00010377539707803468 0.0043202158470583805 0.0016946819057466996
13 -0.0001424349710347435 0.023060036643439977 -0.019161122010511848
142 -0.006135866114380108 -0.004110621180933708 -0.00036478210678721196
10 -0.0015115651139242278 0.0008313612189732708 -0.012270708492812067
24 -0.007184568333864697 0.0028125443983859624 -0.006998398705460506
20 -0.0038464241213583576 -0.006004774102801498 -0.0015150581526987706
28 0.013838775776111287 -0.02045507140240208 0.013256061922634982
4 -0.0013361821390389798 -0.052215888405612206 0.04840784693843212
9 0.031092946431354337 0.01949420695419907 -0.01770759871399315
26 -0.0037944251671117894 0.006220827014027256 0.0006572419918319678
154 -0.020705055086083682 -0.017254451123729288 -0.03656191518571072
35 0.0007115856744267449 -0.0013745412281314859 -0.015383817234153704
30 0.002313994143412737 0.0023143018033639153 0.0023488516703407767
32 -0.005587573581346662 -0.010481154698023838 0.002706660184476608
39 0.010767259492415448 0.0036014102759943907 0.007444386818302343
161 0.0026372589225493763 0.005286781083960491 -0.015779872926606806
162 0.0012947400491494293 0.004762394189646856 -0.0051935882728162
25 0.002668380157465279 0.0026873813588641805 -0.008147458500764284
23 -0.00578607699641916 0.00010205759665979057 -0.004458622940139602
163 0.001479276174556006 0.007342841533951122 -0.008438747582081579
159 0.005556118491884125 -0.0006207375981303813 0.03700079003860877
166 0.02212796586333949 0.007081863345567959 -0.02605394623942642
167 0.001213516150691415 -7.84956012194125e-05 0.0024456960153562495
33 0.004174973635911123 0.0007985500960975408 0.008455355667173712
27 -0.014360624884620865 0.028107561220242328 -0.03000928974378146
146 -0.008810582379427348 -0.005967483419021144 -0.006073992382683992
34 -0.008005444077330195 -1.5388342294102173e-05 0.013930065561499703
155 0.011778924458909594 -0.0023147269612782 0.00965874528285452
147 -0.023562413747465514 0.007807855832336125 -0.00398013607350278
29 -0.0033876063291773456 0.006021999880493128 0.002237126045964365
158 -0.00401862251696669 -0.0033595196647804087 -0.0005077257309881405
36 -0.005503803504127191 -0.005946263032410445 -0.004773547502008798
164 0.00279396890487717 -0.008734926751120245 -0.014578325641690187
21 -0.021249480014754966 -0.0106496188670042 0.024738366282703022
31 0.011575584355474799 0.010805231793110152 0.010792618819450435
148 0.015023451711719198 -0.005340448006265017 -0.003006467884782588
150 -0.01541612578701043 -0.0038014136365796714 0.0018863039127918239
168 -0.00253789707706066 -0.004852446043877557 -0.003068038893631156
160 -0.003504146991401122 0.02769679587274554 -0.008217258813738276
141 0.004063472135398144 0.003502095083461352 -0.005119797308184443
144 0.019842111795203447 0.024812403453557126 0.006068498527856975
139 -0.017700333861077472 -0.018940418058468654 -0.019954840264902823
275 0.004188161847211431 0.0014589456815650795 -0.001379162240328434
37 0.002610245360680761 0.015104540733966481 0.014591660757612989
143 0.012810311449950575 0.030549378270062114 -0.010446411239890025
38 0.0057880306409027705 -0.0006900919011212343 0.0018874518586948158
140 -0.00650011540834923 -0.007590751705439662 0.005830540038440522
145 -0.002173623522350116 0.0018037634062114838 -0.0006710549265345985
165 -0.026580328621034512 0.008750741266905561 0.009789655793807788
12 0.0006429728266401987 -0.003903173547036163 -0.005502489404131969
156 -0.00311819839853221 -0.03900121377293288 0.00740393422741028
152 -0.00011119965065116191 -0.01001716617051936 -0.00617206989536066
172 0.01871100655013595 -0.019612996888839426 0.01761263443211478
151 0.021386012242235353 -0.02826765193368183 0.015775787368857982
183 0.015466658482153846 0.0155705148637201 0.033357804196962604
47 0.001291698379681002 -0.00823808946731617 0.014059660124356724
170 -0.003472000479520386 0.005862510808694125 -0.007714290210016011
45 0.02661158592293564 -0.020417805851893643 -0.01925292006035078
179 -0.005617134551411339 0.0027018417461363484 0.001290760287438634
189 -0.058773635379230055 0.0015988643342769292 0.00310107500000427
46 0.0011280448963855605 -0.0015555341849234953 0.0005575697012517746
52 0.016260396063282324 0.0016656048492562786 0.0027222222229350787
51 -0.010774825799610137 0.012924846174499453 -0.007226727530033916
54 -0.003513244148099232 0.003230025260504098 0.000981476251357405
44 -0.01282257783355111 -0.009776991092496731 0.012157089258387042
174 0.0038267121159614387 0.00866139619739922 -0.0010309964338640724
42 0.005805559957203868 -0.009869279510062338 0.0006065554726492679