ITEM: TIMESTEP
0
ITEM: NUMBER OF ATOMS
20640
ITEM: BOX BOUNDS xy xz yz pp ff pp
1.3868249283318805e+00 1.4613175071668124e+01 0.0000000000000000e+00
5.5472997133286924e+01 5.8452700286669256e+02 0.0000000000000000e+00
3.9862549033768566e+00 4.2003745096626091e+01 0.0000000000000000e+00
ITEM: ATOMS id q xu yu zu
1 0.136635 4.56816 584.363 4.93077
2 -0.105928 4.71112 583.817 3.98549
3 -0.0174489 3.89719 584.21 2.85195
4 0.177377 7.10314 578.827 1.5837
5 0.141078 6.32448 582.596 4.66157
6 0.118085 8.84228 582.02 2.83373
7 -0.110712 5.68564 582.799 3.8386
8 -0.102287 4.07901 583.458 1.61768
9 0.121447 3.42326 583.758 0.802818
10 -0.0156346 5.88999 581.966 2.64507
11 -0.292151 6.43443 579.761 1.50377
12 -0.0798812 5.03398 582.44 1.53057
13 0.183191 5.49491 579.337 1.70072
14 -0.307055 8.23507 581.596 2.01856
15 0.194847 6.459 580.162 0.423366
16 0.153973 5.09508 581.867 0.585611
17 0.0165182 6.91701 580.872 2.51192
18 0.154081 8.86074 580.869 1.41203
19 0.186065 7.98526 582.481 1.37135
20 -0.00577444 7.14888 580.183 3.77568
21 0.128378 4.97098 580.116 4.29019
22 0.125746 9.34109 579.827 3.63225
23 -0.10721 5.99005 579.878 4.55832
24 -0.120389 8.48118 579.772 4.24414
25 -0.164829 6.07557 579.317 5.88696
26 -0.148772 8.61819 579.223 5.53385
27 0.160072 5.202 579.128 6.51239
28 0.179695 9.51892 578.798 5.84543
29 0.266372 7.4039 579.037 6.3207
30 -0.504569 7.5435 578.568 7.59811
31 0.207573 7.14223 577.062 9.77554
32 0.271378 6.699 578.87 8.5668
33 -0.121733 6.69009 578.037 9.76332
34 0.165515 6.03021 580.823 7.62152
35 -0.129445 6.02397 580.17 8.54088
36 -0.0460219 6.2547 578.574 10.9485
37 0.175343 6.39839 578.018 11.8703
38 -0.0536174 5.51379 580.717 9.72531
39 -0.0431748 5.75273 579.939 10.9993
40 0.392805 4.80268 582.069 10.0674
41 -0.468595 4.28267 582.839 9.33511
42 0.390499 5.24779 580.842 12.1139
43 -0.444502 4.75626 582.186 11.6374
44 -0.45185 5.22973 580.406 13.2286
45 0.191224 3.13069 584.311 10.7651
46 0.178022 3.84475 583.121 12.4113
47 -0.13549 2.9816 584.096 11.7809
48 0.236367 4.23105 582.344 14.3741
49 -0.128905 3.6131 583.045 13.7961
50 -0.113658 1.92822 55.7337 12.4441
51 0.151885 1.32364 56.4243 11.8633
52 0.150604 2.72 583.896 14.5501
53 -0.0754553 1.75164 55.5863 13.8694
54 -0.434238 1.22863 56.6801 16.8057
55 -0.296954 3.06156 584.145 16.0128
56 0.181194 0.960109 56.2435 14.2997
57 0.243043 2.39308 56.3602 16.7387
58 -0.450467 5.45737 583.691 15.7889
59 0.370602 4.5399 584.283 16.311
60 -0.0499859 3.48693 57.11 17.488
61 -0.0354391 4.78502 56.3872 17.3091
62 0.144575 2.39531 58.8174 18.3343
63 -0.104468 3.38518 58.3857 18.1911
64 -0.170197 5.98319 57.0088 17.825
65 0.13724 6.95624 56.6024 17.503
66 -0.182489 4.56366 58.879 18.7471
67 0.250968 5.87905 58.2495 18.4751
68 0.130459 4.42492 59.8425 19.2762
69 0.13833 8.42038 58.8489 21.0604
70 -0.533127 7.03814 58.7954 18.7942
71 -0.152862 7.80386 59.7226 20.8919
72 0.237088 7.16361 59.9066 19.5944
73 0.125433 8.0326 60.5754 22.8223
74 0.148155 8.50761 63.1465 23.4903
75 0.166237 5.09634 64.1466 21.4927
76 -0.109358 7.61678 60.7179 21.8638
77 -0.167088 6.50203 61.1262 19.232
78 0.143197 6.07657 61.2214 18.2166
79 -0.314211 7.51296 62.906 23.8995
80 -0.00926271 6.84346 61.9441 21.5918
81 -0.285196 5.89431 64.2411 22.2795
82 0.118602 7.24486 63.6943 24.621
83 -0.104309 6.39877 62.154 20.2303
84 0.166805 5.50711 64.8009 23.1595
85 0.123957 7.63255 62.0086 24.5043
86 0.155147 6.72024 64.8294 21.8133
87 0.0104836 6.40336 62.7846 22.7519
88 0.166024 5.86098 63.0851 19.9626
89 -0.00786619 5.20878 62.1634 23.3695
90 0.126954 5.1684 63.481 25.1624
91 0.131053 4.71257 60.9628 21.6427
92 -0.117097 4.69742 62.6246 24.6597
93 -0.119028 4.38472 61.1749 22.6466
94 -0.17019 3.54226 62.0209 25.2208
95 -0.158614 3.24735 60.6076 23.2724
96 0.168453 3.15156 62.4353 26.1248
97 0.134292 2.68645 59.8102 22.7256
98 0.234261 2.78414 60.948 24.6036
99 -0.504386 1.70872 60.4014 25.2368
100 0.128771 3.8825 60.5374 26.8283
101 0.260268 1.74264 60.2443 26.5631
102 -0.183339 2.95772 60.4007 27.3717
103 0.181471 -0.384979 59.8074 26.7314
104 -0.115821 0.531263 59.9572 27.2483
105 -0.0669946 2.94856 60.3709 28.7681
106 0.153605 3.89094 60.4507 29.3322
107 -0.045295 0.432847 59.9695 28.7191
108 -0.0386885 1.69524 60.1564 29.5067
109 0.388646 -0.702105 59.6953 29.6688
110 -0.447517 -1.8876 59.6437 29.4139
111 0.389474 1.39831 60.0318 30.9804
112 -0.401796 -0.169508 59.7713 31.1238
113 -0.42098 2.18766 60.2344 31.8513
114 0.18968 -0.867072 59.2961 32.3702
115 0.242096 0.809193 59.8112 33.6902
116 0.190387 -2.69668 58.6683 31.3368
117 -0.114148 -0.170765 59.2902 33.5876
118 -0.11409 -2.18896 58.7426 32.3097
119 0.195388 -0.703164 58.6887 34.8372
120 -0.0981122 -2.79221 58.2812 33.5127
121 0.158511 -3.8139 57.8358 33.4851
122 -0.464775 -1.29204 57.2939 37.6029
123 -0.141453 -2.05636 58.2899 34.7272
124 -0.461657 0.133457 58.5906 36.0376
125 0.380817 -0.211552 57.672 37.2588
126 -0.427458 2.42872 59.5163 35.3434
127 0.385016 1.71397 58.8646 36.0344
128 0.165288 -2.51366 57.8231 35.5725
129 -0.0553172 1.07292 57.5315 38.0718
130 -0.0402552 2.18923 58.2703 37.3549
131 0.204106 0.555707 56.2052 39.7432
132 -0.114359 1.31403 56.7727 39.2668
133 -0.070071 3.53118 58.2292 37.8505
134 0.16934 4.35245 58.7835 37.3993
135 0.230202 2.68375 56.7014 39.7439
136 -0.128158 3.68448 57.3748 38.974
137 -0.335179 2.95282 56.1143 40.9578
138 0.193857 4.66817 57.2546 39.4061
139 0.161623 15.1384 64.2091 1.21605
140 -0.118004 14.4609 63.6008 0.577658
141 0.274104 14.613 63.7446 -0.85868
142 0.135464 10.1773 62.1984 -1.01978
143 0.14978 13.4103 62.8781 2.23814
144 0.139837 10.8833 59.9146 -0.792452
145 -0.0767212 13.3886 62.871 1.13585
146 -0.131996 13.6697 62.9877 -1.6998
147 0.175927 13.6513 63.0357 -2.81682
148 -0.00761074 12.4222 62.1531 0.329526
149 -0.304876 9.96892 62.166 0.0716962
150 -0.103655 12.65 62.2505 -1.1245
151 0.149124 9.0064 61.5761 0.224959
152 -0.292278 11.1083 59.9801 0.324362
153 0.151135 9.84255 63.2278 0.377861
154 0.1323 11.9185 61.7782 -1.756
155 0.00832659 11.1432 61.4679 0.809056
156 0.171396 12.1146 59.5027 0.498465
157 0.163044 10.3376 59.4096 0.863924
158 -0.00187096 11.009 61.5938 2.35098
159 0.135294 9.07185 62.7771 2.21504
160 0.136348 12.89 60.4418 2.75822
161 -0.101099 9.88398 62.3635 2.8746
162 -0.113902 11.9988 60.953 3.20212
163 -0.142067 9.54548 62.2945 4.28041
164 -0.159808 11.787 61.0935 4.59454
165 0.198814 8.66747 62.7988 4.66716
166 0.150688 12.4972 60.6331 5.30509
167 0.232459 10.5449 61.6413 5.10663
168 -0.5151 10.2111 61.6977 6.41922
169 0.179476 10.5579 61.9187 8.99018
170 0.241951 10.5527 60.6464 7.1791
171 -0.131852 10.7181 60.9001 8.61651
172 0.167791 10.455 59.2392 5.53969
173 -0.160927 10.6263 59.3597 6.60452
174 -0.0826261 11.0047 59.8739 9.48735
175 0.161177 11.1407 60.0245 10.5436
176 -0.0529862 10.8564 58.2509 7.49553
177 -0.0740305 11.1077 58.5161 8.94765
178 0.343528 11.1196 56.7928 7.11812
179 -0.349577 11.0768 56.2875 6.02208
180 0.368081 11.4951 57.2078 9.62285
181 -0.25881 11.4816 56.1013 8.52239
182 -0.46414 11.8084 57.0826 10.7675
183 0.119579 10.553 583.197 6.69116
184 -0.0228004 11.0978 583.753 8.80872
185 -0.0861735 10.6161 582.893 7.75334
186 0.18425 11.5695 583.765 10.9112
187 -0.136887 11.1945 583.135 10.106
188 -0.0812562 10.2328 581.542 8.03505
189 0.146824 9.76469 580.904 7.30417
190 0.160959 10.7902 581.836 10.4664
191 -0.123425 10.351 581.006 9.36294
192 -0.463628 9.07429 579.624 11.9135
193 -0.442365 10.7322 581.423 11.9273
194 0.189936 9.87864 580.02 9.56577
195 0.408833 9.62845 580.482 12.4859
196 -0.459654 12.0087 583.218 13.1039
197 0.382962 11.1574 582.365 13.0864
198 -0.0565249 9.34899 580.889 13.9663
199 -0.0372389 10.2795 582.011 14.2957
200 0.185945 7.60191 579.641 14.4579
201 -0.0662589 8.26289 580.462 14.7887
202 -0.140692 9.99431 582.695 15.5585
203 0.188617 10.6315 583.474 15.7774
204 -0.112139 8.04768 581.105 16.0627
205 0.256554 8.9539 582.197 16.4241
206 0.192466 7.21863 580.829 16.7726
207 0.17051 11.3732 582.615 17.6788
208 -0.477455 8.65117 582.903 17.5653
209 -0.150556 10.9202 583.423 18.2445
210 0.245607 9.47349 583.638 18.3005
211 0.126403 12.7994 584.207 18.8662
212 0.129292 13.7344 56.7579 22.0636
213 0.177543 12.9782 58.0687 18.5065
214 -0.116045 11.6905 584.343 18.9454
215 -0.113122 8.87633 55.5553 19.1957
216 0.140094 7.83026 55.6877 19.3684
217 -0.217865 12.8013 56.3 21.6363
218 -0.00927138 11.1488 56.3622 19.8027
219 -0.283354 13.3705 57.6225 19.4973
220 0.143731 12.0313 56.15 22.4344
221 -0.106002 9.70404 56.4132 19.9456
222 0.140009 13.9655 58.4346 19.8822
223 0.0831498 13.0941 584.394 21.2468
224 0.159788 14.0667 56.7824 19.3769
225 0.00977255 12.1754 57.2399 20.514
226 0.133376 9.24433 57.0072 20.6502
227 -0.0170764 11.6267 58.5555 20.9916
228 0.135199 12.6397 58.3796 22.9281
229 0.140103 10.6495 59.1278 19.1754
230 -0.113022 12.1215 59.0245 22.3057
231 -0.0967039 10.9021 59.5547 20.1738
232 -0.158598 11.8685 60.3715 22.7032
233 -0.129385 10.6947 60.8864 20.576
234 0.164669 12.2882 60.6197 23.6599
235 0.150774 10.1932 61.5717 19.8945
236 0.263461 11.2226 61.3443 21.8573
237 -0.53294 11.0294 62.6084 22.2048
238 0.154801 13.759 62.1632 22.321
239 0.237 11.9843 63.2641 22.9374
240 -0.143619 13.4071 62.9687 22.9498
241 0.148081 10.4973 64.6073 23.8047
242 -0.137852 11.5523 64.3266 23.799
243 -0.0596635 14.3572 63.6574 23.7916
244 0.162062 15.3994 63.4017 23.7617
245 -0.0482608 12.4571 65.0313 24.6484
246 -0.0475291 13.9353 64.6264 24.7291
247 0.403311 12.225 66.1115 25.6942
248 -0.468197 11.1483 66.5379 26.0019
249 0.4122 14.6788 65.5722 25.7017
250 -0.416726 13.5708 66.456 26.3462
251 -0.459375 15.8439 65.6363 25.8539
252 0.183668 13.8002 67.4595 27.5113
253 0.23087 15.0391 66.0593 28.5152
254 0.177601 12.4331 69.0214 26.7599
255 -0.131704 14.6042 67.0589 28.5906
256 -0.11323 13.1567 68.7336 27.5775
257 0.180994 14.7434 67.8835 29.7829
258 -0.0637029 13.4427 69.6275 28.6447
259 0.166488 12.9071 70.5903 28.6013
260 -0.471946 14.6375 68.7389 32.8154
261 -0.105914 14.1683 69.1862 29.773
262 -0.42391 15.2127 67.1778 31.0266
263 0.39956 14.9724 67.6464 32.5144
264 -0.452183 15.9436 64.9482 30.1644
265 0.388576 15.5767 65.6485 31.0725
266 0.174435 14.2844 69.869 30.6307
267 -0.0489244 15.185 66.3779 33.3524
268 -0.0412964 15.5642 65.192 32.4936
269 0.179165 14.9119 66.9867 35.4045
270 -0.124073 15.1812 66.1794 34.7922
271 -0.0667756 16.1009 64.0435 33.1605
272 0.178593 16.4257 63.1593 32.6438
273 0.255645 15.5877 64.9808 35.4343
274 -0.139564 16.0716 63.9324 34.594
275 -0.495481 15.36 64.7596 36.7872
276 0.183763 16.4769 62.9821 34.9777
277 0.178947 7.68258 581.982 9.69535
278 -0.107478 7.80498 583.05 9.92144
279 0.227905 7.99672 583.947 8.83573
280 0.194555 6.59099 583.69 13.9186
281 0.146619 7.6354 582.787 12.0359
282 0.126933 9.19156 57.2635 14.6595
283 -0.10583 7.78133 583.52 11.2801
284 -0.0992998 8.265 56.2979 9.13706
285 0.146549 8.58013 56.974 8.32003
286 -0.00778502 7.92284 55.8821 11.6149
287 -0.165717 7.57456 584.232 14.0686
288 -0.0976306 8.30145 56.7554 10.4992
289 0.148495 8.36982 583.499 13.8167
290 -0.288935 9.1757 56.9839 13.5891
291 0.0850192 7.57333 55.5135 15.1314
292 0.16504 8.54296 57.8104 10.6517
293 -0.0363509 7.78207 56.3558 13.0626
294 0.159297 9.97439 56.1692 13.4693
295 0.168318 9.48483 57.8669 12.9925
296 0.0152061 6.6205 57.2778 13.3216
297 0.11419 7.1692 57.9617 15.4232
298 0.13365 5.61734 56.9441 11.3513
299 -0.118535 6.43059 57.9756 14.5988
300 -0.0713058 5.52577 57.4709 12.3369
301 -0.157263 5.2229 58.6858 14.8893
302 -0.126835 4.34507 58.1759 12.6243
303 0.151531 5.00116 59.0196 15.9201
304 0.159396 3.50365 58.3063 11.9368
305 0.261871 4.18997 58.8167 13.9036
306 -0.48642 3.04706 59.483 14.1412
307 0.17614 4.63519 61.62 13.8007
308 0.256005 3.11086 60.5324 14.9873
309 -0.133462 4.0448 61.6298 14.7512
310 0.189387 1.66273 59.8661 16.4626
311 -0.120113 2.36797 60.6482 16.227
312 -0.0617696 4.32412 62.6702 15.6708
313 0.175767 5.10548 63.4004 15.5411
314 -0.0485873 2.46657 61.7176 17.1399
315 -0.0444259 3.54575 62.7491 16.8794
316 0.382696 1.80314 62.0116 18.4698
317 -0.482514 0.976934 61.2315 18.9021
318 0.400255 3.64585 63.6259 18.141
319 -0.445967 2.51624 63.2266 19.1315
320 -0.431774 4.57399 64.3703 18.2115
321 0.177668 -0.10853 63.3185 19.9563
322 0.180341 1.8203 64.2384 20.0304
323 -0.11839 0.434156 64.1164 20.3506
324 0.221259 3.4171 65.6251 20.389
325 -0.133724 2.38826 65.4424 20.5823
326 -0.0852481 -0.391248 65.0311 21.1016
327 0.144777 -1.47429 64.8792 21.2347
328 0.187961 1.65526 66.3978 21.3707
329 -0.0911792 0.258924 66.1718 21.5942
330 -0.496462 4.64195 66.8279 22.165
331 -0.41821 2.26534 67.5255 22.1475
332 0.184406 -0.358419 66.8709 22.1622
333 0.417155 3.74121 67.4246 22.6415
334 -0.486043 0.332978 68.8234 23.1436
335 0.409092 1.43938 68.3935 23.1877
336 -0.0413457 3.82894 68.2319 23.9271
337 -0.0234016 2.46852 68.8065 24.2334
338 0.136855 5.99601 68.2533 24.4671
339 -0.0706276 4.9827 68.5888 24.7479
340 -0.11551 2.27495 69.5208 25.4884
341 0.17498 1.32475 69.9446 25.7645
342 -0.14441 4.76065 69.3197 25.9218
343 0.284211 3.4104 69.643 26.3523
344 0.156483 5.59944 69.6179 26.5033
345 0.175963 3.68799 71.6707 29.6554
346 -0.499781 3.24538 70.1546 27.5544
347 -0.13083 4.2454 70.7372 29.6587
348 0.246065 3.95613 69.7285 28.6478
349 0.14482 5.51469 71.2499 31.3781
350 0.133981 7.29174 66.8308 31.6003
351 0.157002 7.25571 71.1815 32.5892
352 -0.115913 5.26186 70.5241 30.6059
353 -0.139758 4.62451 68.4478 28.7171
354 0.172211 4.14616 67.5528 28.1744
355 -0.314874 7.81547 67.7706 31.3804
356 -0.00509652 6.03554 69.2663 30.5729
357 -0.287177 7.80794 70.3878 31.9461
358 0.147763 8.30769 67.8738 30.431
359 -0.10527 5.64556 68.1795 29.7077
360 0.164653 8.70983 70.1193 32.5602
361 0.140555 8.66603 67.7511 32.0948
362 0.184424 8.11397 70.824 30.9946
363 0.00170191 6.92698 69.0424 31.732
364 0.129685 6.18895 67.2684 29.8248
365 -0.0143996 6.27609 68.8303 33.0894
366 0.157647 4.19145 69.2116 32.3701
367 0.137457 8.20292 68.4136 34.0978
368 -0.101697 4.85148 68.9432 33.232
369 -0.102504 7.10228 68.4554 34.2355
370 -0.128038 4.22947 68.7142 34.4853
371 -0.151008 6.44665 68.2569 35.493
372 0.176865 3.15324 68.8673 34.667
373 0.155119 7.12732 67.9966 36.3412
374 0.251408 5.02359 68.3603 35.653
375 -0.524868 4.42739 67.9805 36.8172
376 0.121247 3.33944 67.291 38.9706
377 0.263582 4.7467 66.8038 37.3469
378 -0.136201 4.00168 66.5065 38.5765
379 0.160918 6.15552 65.8771 35.7687
380 -0.141746 5.62969 65.7133 36.7801
381 -0.0926663 4.07814 65.2458 39.1718
382 0.120672 3.44663 65.1343 40.0327
383 -0.0349266 5.68606 64.4167 37.3753
384 -0.0535486 4.86641 64.1585 38.6318
385 0.383254 6.4059 63.1279 36.9639
386 -0.45839 7.04991 63.0066 35.949
387 0.399017 5.01053 62.7013 39.0174
388 -0.432084 6.03273 62.0415 38.0019
389 -0.441583 4.49467 62.1723 39.9248
390 0.169176 6.48642 60.6128 38.0085
391 0.248654 5.82711 60.0503 39.9818
392 0.175166 7.22183 60.5755 35.8321
393 -0.161491 6.46199 59.7392 39.1379
394 -0.125186 7.13545 60.0708 36.8469
395 0.166881 7.01978 58.4477 39.2848
396 -0.122471 7.71175 58.7642 36.8756
397 0.121023 8.24588 58.3197 36.0387
398 -0.384534 8.62714 55.9238 40.6336
399 -0.128783 7.75312 58.0518 38.1064
400 -0.44045 6.82 57.695 40.553
401 0.407111 7.74297 56.5214 41.131
402 -0.44027 5.38366 59.2795 41.8657
403 0.390059 6.09542 58.3189 41.7767
404 0.177047 8.23862 57.0504 38.0153
405 -0.0157868 7.29615 56.3739 42.5347
406 -0.0277419 6.29811 57.3918 43.0057
407 0.131267 8.53851 583.626 43.0686
408 -0.176022 7.74922 584.358 43.399
409 -0.0936987 5.78483 57.3 44.3472
410 0.143848 5.02511 57.9891 44.7405
411 0.219306 7.35618 584.399 44.79
412 -0.100058 6.32721 56.2496 45.1805
413 -0.4841 7.82386 583.455 45.6083
414 0.120538 5.93299 56.3277 46.2508
415 0.139691 14.2823 66.3672 1.58955
416 -0.1758 13.9577 66.0413 2.54431
417 0.271204 12.7191 65.3222 2.66693
418 0.131494 17.7286 65.8146 6.40022
419 0.0889836 15.9135 66.5457 3.44329
420 0.116622 15.4488 67.6066 6.40876
421 -0.120454 14.8943 66.0571 3.60822
422 -0.145487 12.4823 64.6738 3.92794
423 0.165654 11.5655 64.2815 4.17017
424 -0.00506937 14.6128 65.4755 4.87755
425 -0.313676 17.0856 65.8073 5.51299
426 -0.105425 13.3286 64.7992 5.07999
427 0.144032 17.406 65.1617 4.717
428 -0.314944 15.285 66.6331 6.9012
429 0.101568 17.1932 66.8582 5.14855
430 0.145518 13.1177 64.3244 6.04831
431 0.019432 15.6198 65.4145 6.00389
432 0.141665 14.2702 66.6868 7.29201
433 0.115991 15.9713 66.7148 7.79713
434 -0.01608 15.6549 64.1424 6.82588
435 0.160671 16.5388 62.864 5.24108
436 0.137146 14.7712 65.0659 8.61092
437 -0.094409 16.2563 62.9139 6.30504
438 -0.101371 15.1529 64.1295 8.20119
439 -0.11643 16.5096 61.8447 7.19191
440 -0.147261 15.1794 62.9706 8.99203
441 0.175937 16.9863 60.9439 6.76971
442 0.167339 14.9387 63.0399 10.0324
443 0.271214 15.9692 61.8493 8.56833
444 -0.502814 16.0679 60.7261 9.23967
445 0.147045 14.7218 58.551 10.2027
446 0.24361 15.6167 60.5909 10.5512
447 -0.142799 14.6959 59.5157 10.8023
448 0.177529 16.5618 62.3947 11.3509
449 -0.144028 15.7766 61.6783 11.5032
450 -0.0675138 13.8062 59.647 11.9112
451 0.17476 13.1002 58.8178 12.0116
452 -0.0235304 14.8135 61.8457 12.5338
453 -0.0344177 13.7473 60.8402 12.7584
454 0.398431 14.6657 62.9153 13.6641
455 -0.471108 15.3063 63.8835 13.6395
456 0.415497 12.901 61.1271 14.0072
457 -0.429692 13.5369 62.3636 14.699
458 -0.465783 12.0146 60.4163 14.3389
459 0.178565 11.2665 61.883 16.2589
460 0.193314 13.0199 63.0996 15.8662
461 -0.110093 11.827 62.7445 16.5739
462 0.240035 14.6737 64.5617 15.8418
463 -0.148192 13.6784 64.3216 16.3051
464 -0.0831945 11.2695 63.6272 17.5201
465 0.134833 10.3052 63.3788 18.0612
466 0.173828 13.2082 65.228 17.2943
467 -0.114249 11.964 64.8386 17.8975
468 -0.44611 15.8905 66.3969 16.2021
469 -0.418955 13.9644 66.4271 17.7416
470 0.188031 11.4417 65.5072 18.611
471 0.386688 15.176 66.9801 16.9723
472 -0.516896 12.3416 67.6046 19.2149
473 0.407095 13.3743 67.6235 18.6557
474 -0.0413989 15.4364 68.4098 17.4476
475 -0.0393652 14.3319 68.8084 18.3804
476 0.133307 17.3045 69.0445 16.4747
477 -0.0780865 16.4839 69.3577 17.1518
478 -0.12852 14.2582 70.1531 18.8438
479 0.159974 13.4108 70.3736 19.4834
480 -0.14228 16.4356 70.6522 17.7119
481 0.277574 15.3507 71.0865 18.6035
482 0.150728 17.306 71.3436 17.5757
483 0.174883 12.631 71.7581 18.5878
484 -0.52765 15.3632 72.3448 19.0446
485 -0.166357 12.9004 72.6737 19.1637
486 0.249117 14.2618 73.0021 19.4734
487 0.137627 10.806 73.2769 19.3087
488 0.144395 12.0346 77.4913 21.0348
489 0.16148 9.52627 75.0929 19.1736
490 -0.105662 11.8275 73.532 19.6036
491 -0.11327 14.5122 74.2188 20.2273
492 0.183514 15.5617 74.5413 20.3943
493 -0.305662 11.2699 77.0608 20.419
494 -0.0156723 12.0407 74.7147 20.3875
495 -0.313651 9.51853 75.1796 20.3013
496 0.174837 11.7011 76.9866 19.4092
497 -0.0803324 13.4305 75.0279 20.6311
498 0.122951 9.13156 74.2266 20.6251
499 0.129668 10.3685 77.7394 20.3996
500 0.141765 8.81574 75.9769 20.4359
501 0.0174864 10.9387 75.5998 20.8965
502 0.163617 13.6758 75.9364 21.1803
503 -0.0141166 10.6491 75.5472 22.3613
504 0.145434 9.32547 77.2832 22.342
505 0.134047 11.8548 73.797 22.738
506 -0.116399 9.82332 76.5611 22.983
507 -0.114186 11.2224 74.5289 23.2053
508 -0.14035 9.71903 76.6483 24.3744
509 -0.164081 11.0906 74.5662 24.6282
510 0.144364 9.04705 77.4092 24.8184
511 0.154225 11.5461 73.8717 25.2979
512 0.265619 10.2998 75.6223 25.2381
513 -0.513615 10.2318 75.7907 26.5475
514 0.188546 11.395 76.154 28.7973
515 0.255067 10.4746 74.749 27.3897
516 -0.101798 11.0967 75.1202 28.6619
517 0.133976 9.67991 73.0821 26.1567
518 -0.150678 10.0782 73.376 27.1632
519 -0.0708092 11.204 74.2324 29.7723
520 0.14746 11.6689 74.5608 30.6989
521 -0.0356107 10.1868 72.4347 28.2371
522 -0.047015 10.6428 72.8796 29.6111
523 0.384189 10.0458 70.9101 28.3279
524 -0.488711 9.77265 70.2401 27.3753
525 0.373705 10.5662 71.7855 30.6447
526 -0.466538 10.3069 70.4641 29.8396
527 -0.473056 10.5972 72.0014 31.8363
528 0.170806 10.6723 69.1442 30.3778
529 0.223564 11.3093 69.8136 32.3373
530 0.183977 10.211 68.0002 28.5543
531 -0.157332 11.1896 68.9253 31.7208
532 -0.131796 10.5187 67.9255 29.6485
533 0.181973 11.4559 67.6529 32.3589
534 -0.0903241 10.8705 66.641 30.1664
535 0.1481 10.7771 65.8065 29.4947
536 -0.465586 11.6567 64.9777 34.1927
537 -0.120164 11.2939 66.5338 31.5195
538 -0.435822 11.6412 67.4734 33.8428
539 0.388416 11.6233 66.0834 34.6281
540 -0.459298 12.089 69.7336 34.6737
541 0.416186 11.8735 68.5784 34.8758
542 0.197638 11.6379 65.5801 31.9466
543 -0.040719 11.6808 66.4353 36.1364
544 -0.0476489 11.9417 67.8971 36.2609
545 0.168071 11.3737 64.518 37.0795
546 -0.138427 11.5551 65.5458 37.253
547 -0.0826167 12.0597 68.3596 37.6214
548 0.154057 12.2258 69.3635 37.8159
549 0.242578 11.8938 65.9857 38.582
550 -0.16034 12.103 67.4183 38.6842
551 -0.504327 11.8383 65.1731 39.711
552 0.160078 12.2597 67.8671 39.6519
553 0.16858 7.36752 71.6385 0.468328
554 -0.140412 7.70055 70.6652 0.989089
555 0.244161 8.50535 69.6922 0.266591
556 0.182204 8.75491 69.4728 5.17848
557 0.129469 6.49014 71.0407 2.78408
558 0.135804 5.2424 70.402 4.44884
559 -0.107731 7.16816 70.3667 2.25069
560 -0.148665 8.83768 68.4241 0.949484
561 0.164122 9.51556 67.7216 0.44794
562 -0.014982 7.44504 69.1094 2.90575
563 -0.298863 7.71674 69.7293 5.26754
564 -0.0962799 8.34438 68.1669 2.20885
565 0.155234 7.63692 70.843 4.97616
566 -0.321573 5.33814 69.3147 4.4672
567 0.139784 7.36872 69.5642 6.31351
568 0.1582 8.54552 67.2095 2.71188
569 0.015091 6.80283 68.8219 4.29108
570 0.0993507 4.77316 68.7608 3.6818
571 0.116634 4.82426 68.9237 5.3109
572 -0.0209769 6.94694 67.3716 4.58248
573 0.121704 6.12788 66.5412 2.64403
574 0.134797 7.85461 67.5477 6.55494
575 -0.131092 6.56942 66.3381 3.64268
576 -0.112706 7.462 66.8532 5.85126
577 -0.146735 6.63436 64.9386 3.93306
578 -0.179591 7.49007 65.4752 6.16044
579 0.168004 6.25794 64.1688 3.21609
580 0.137566 7.86811 65.189 7.19475
581 0.241582 6.9725 64.4662 5.26402
582 -0.518504 6.80548 63.1577 5.50519
583 0.176062 7.5381 60.7812 6.01276
584 0.267564 6.82149 62.6911 6.76779
585 -0.115145 7.19952 61.3095 6.90804
586 0.147829 5.93266 64.3735 7.88219
587 -0.15092 6.32888 63.3623 7.92189
588 -0.0909222 7.06899 60.5506 8.12011
589 0.131208 7.32428 59.5011 8.1722
590 -0.0325797 6.36878 62.688 9.17628
591 -0.0543585 6.7131 61.2366 9.32558
592 0.404697 6.1417 63.2117 10.6284
593 -0.492433 5.95662 64.3726 10.8466
594 0.397012 6.67606 60.8315 10.8122
595 -0.437187 6.28316 62.0802 11.6641
596 -0.478178 7.00256 59.7876 11.3096
597 0.188124 6.87692 60.2 13.5948
598 0.175008 6.99592 62.2526 13.0007
599 -0.118637 7.17079 61.1987 13.8903
600 0.226107 7.1429 64.3983 12.8601
601 -0.132498 7.36326 63.5417 13.5506
602 -0.110178 7.67719 61.358 15.2352
603 0.119604 7.7805 60.5021 15.9117
604 0.174842 8.00221 63.8004 14.7554
605 -0.12411 8.08693 62.6827 15.6337
606 -0.433195 8.98338 65.9427 12.6584
607 -0.416746 8.77918 65.1327 14.9413
608 0.151227 8.52223 62.7662 16.6144
609 0.393272 8.93072 66.1996 13.8136
610 -0.460345 8.64348 65.5605 17.3308
611 0.406307 8.76781 65.9454 16.2236
612 -0.0545386 9.15622 67.5944 14.3882
613 -0.048354 9.03425 67.4396 15.9024
614 0.174964 9.6517 69.1001 12.811
615 -0.070812 9.42347 68.9267 13.8913
616 -0.144323 9.10827 68.571 16.7604
617 0.171647 9.02474 68.4402 17.8585
618 -0.136613 9.5205 70.0248 14.7699
619 0.256651 9.326 69.8734 16.1964
620 0.167551 9.7239 70.9779 14.3596
621 0.17215 8.33584 72.7659 18.6859
622 -0.4904 9.36148 71.0148 16.9149
623 -0.155189 8.85597 71.8715 19.1119
624 0.253474 9.63601 71.0271 18.2622
625 0.118294 8.20199 72.2031 21.2162
626 0.143719 8.75782 68.3374 23.75
627 0.160729 10.2309 70.2386 24.5926
628 -0.123037 8.79037 71.5623 20.5247
629 -0.140381 10.5137 70.0236 18.826
630 0.193896 11.1905 69.4168 18.138
631 -0.305719 9.16528 68.6155 22.7902
632 -0.0174163 9.52553 70.4371 21.0794
633 -0.309315 10.2468 70.7192 23.6023
634 0.139164 8.54484 68.0631 22.0362
635 -0.102865 10.531 69.7566 20.2041
636 0.157161 11.3379 70.5096 23.2725
637 0.146637 10.2185 68.2872 22.7662
638 0.119955 10.0521 71.8244 23.7627
639 0.0136052 9.18586 70.2077 22.5644
640 0.173464 11.194 68.993 20.6246
641 -0.0208004 7.81888 70.6796 22.9164
642 0.143992 6.81758 70.1121 20.9636
643 0.139886 8.21129 71.0747 25.0421
644 -0.112032 6.71973 70.6033 21.9594
645 -0.1204 7.46095 71.1488 24.2612
646 -0.134254 5.37257 70.9436 22.3082
647 -0.158953 6.18871 71.657 24.5048
648 0.175677 4.48378 70.7731 21.6178
649 0.151893 6.0038 72.0744 25.4701
650 0.259234 5.06978 71.6053 23.5425
651 -0.493777 3.93616 72.3258 23.6503
652 0.131739 5.75236 74.4372 24.1018
653 0.255295 3.91633 73.2952 24.5957
654 -0.164647 5.05576 74.1509 24.8824
655 0.178257 1.92781 72.592 25.2555
656 -0.108675 2.83482 73.1294 25.5363
657 -0.0861237 5.32101 74.6273 26.2088
658 0.137486 6.2372 75.2216 26.4753
659 -0.0314902 3.04937 73.6708 26.8208
660 -0.0414933 4.33421 74.3574 27.2466
661 0.397992 2.08944 73.5246 28.0339
662 -0.454602 1.00499 72.9519 28.0333
663 0.389694 4.30496 74.6569 28.7235
664 -0.403493 2.8778 74.0561 29.2696
665 -0.435448 5.1352 75.2999 29.2712
666 0.1724 2.66868 73.5758 30.6214
667 0.24596 4.59497 74.3962 31.3894
668 0.18106 0.654366 72.7468 30.3427
669 -0.145147 3.73009 73.7059 31.583
670 -0.134382 1.48496 72.8227 31.0168
671 0.166582 3.74459 73.1542 32.9114
672 -0.0932945 1.52866 72.1379 32.2392
673 0.169446 0.74421 71.502 32.5941
674 -0.482171 4.02892 72.0669 35.8936
675 -0.125554 2.6407 72.2777 33.1424
676 -0.420861 4.8559 73.368 33.8532
677 0.38966 4.9111 72.4185 35.195
678 -0.420559 6.7264 74.0022 32.4167
679 0.378596 6.3202 73.542 33.4457
680 0.177159 2.61513 71.7604 34.1454
681 -0.03886 6.38811 72.0218 35.3331
682 -0.0567161 7.26686 72.8374 34.4057
683 0.164019 6.30707 70.6025 37.0018
684 -0.14483 6.95312 71.1616 36.3355
685 -0.0651083 8.69904 72.7333 34.5933
686 0.189795 9.34795 73.2692 33.8927
687 0.256495 8.3881 71.002 36.41
688 -0.110403 9.22044 71.8594 35.5521
689 -0.498589 8.9791 69.9719 37.055
690 0.203244 10.3131 71.7942 35.6643
691 0.186748 14.0224 71.2785 -3.08339
692 -0.122007 14.0193 71.7559 -2.12961
693 0.238808 13.4297 73.0274 -1.98168
694 0.103781 16.3597 69.6983 2.11055
695 0.143523 14.9306 70.1631 -1.08541
696 0.133746 15.8332 71.6279 3.50166
697 -0.0836224 14.3999 71.1276 -0.91274
698 -0.123655 13.2337 73.628 -0.731204
699 0.209078 12.8512 74.65 -0.627031
700 -0.0188813 14.1929 71.6482 0.431359
701 -0.31794 15.7211 69.9915 1.29767
702 -0.0903047 13.5659 72.9832 0.501747
703 0.122616 15.254 69.0539 0.86118
704 -0.306725 15.3717 72.1436 2.63579
705 0.152362 16.4441 70.3958 0.494443
706 0.157982 13.4234 73.5025 1.47506
707 0.0174419 14.6582 71.0312 1.70617
708 0.131925 16.1411 72.6642 2.04552
709 0.16284 14.597 72.8877 3.02212
710 -0.0225546 13.6118 70.2875 2.48088
711 0.163703 11.8404 71.2926 1.50263
712 0.100956 14.9011 69.0406 3.8476
713 -0.0985288 12.1633 70.5729 2.27929
714 -0.114896 13.8854 69.313 3.56634
715 -0.135829 11.2059 69.9201 3.05103
716 -0.151645 12.9202 68.6362 4.33403
717 0.174747 10.1588 70.1024 2.91018
718 0.14387 13.1539 67.8764 5.13401
719 0.252658 11.5201 68.9581 4.08503
720 -0.51815 10.623 68.1139 4.59508
721 0.162829 9.67596 65.6869 5.39883
722 0.253663 10.8761 67.4508 5.76462
723 -0.152807 10.2819 66.1857 6.10563
724 0.15913 11.933 69.2333 6.46816
725 -0.153777 11.6725 68.2193 6.67817
726 -0.0831967 10.5455 65.6655 7.44781
727 0.157622 10.0946 64.7118 7.73334
728 -0.0640848 12.0663 67.685 7.95244
729 -0.0460924 11.4145 66.372 8.35919
730 0.40102 12.7616 68.3121 9.16928
731 -0.510376 13.3853 69.316 9.11059
732 0.389072 11.9381 65.9771 9.74213
733 -0.446205 12.7148 67.2301 10.2916
734 -0.439671 11.9036 64.8504 10.1559
735 0.201261 12.7246 65.5297 12.47
736 0.172938 12.6184 67.6071 11.7518
737 -0.0997037 12.6376 66.5854 12.7691
738 0.223778 12.4673 69.7852 11.4942
739 -0.145248 12.6055 68.9664 12.1979
740 -0.0817075 12.7721 66.9312 14.1306
741 0.161371 12.8734 66.1714 14.9187
742 0.1706 12.6564 69.3348 13.5622
743 -0.12429 12.8042 68.3353 14.5461
744 -0.468992 11.401 71.7675 11.8179
745 -0.444061 12.3331 70.8303 13.9079
746 0.18906 12.6757 68.5932 15.5805
747 0.406586 11.6725 71.8488 12.9651
748 -0.47944 12.5388 70.8296 16.3529
749 0.389469 12.1951 71.391 15.32
750 -0.049384 11.1995 73.0271 13.8133
751 -0.0360919 11.6299 72.8252 15.2528
752 0.152877 10.0093 74.401 12.6273
753 -0.0788418 10.4334 74.2356 13.6171
754 -0.125457 11.5216 73.8189 16.2971
755 0.172984 11.9491 73.6332 17.2664
756 -0.141623 10.2927 75.2197 14.6516
757 0.264105 10.8605 75.0229 15.9583
758 0.143813 9.76109 76.1479 14.4136
759 0.162698 12.2883 77.3632 15.2999
760 -0.521847 10.4954 75.9321 16.9252
761 -0.149713 11.64 77.9305 15.9827
762 0.259319 10.6453 77.2495 16.8174
763 0.156269 12.5192 79.7886 15.4885
764 0.14274 12.8897 82.331 16.4112
765 0.150768 9.43687 83.3328 16.6777
766 -0.0934596 11.7877 79.3168 16.1093
767 -0.149676 9.82595 78.0713 17.6908
768 0.1543 9.05637 77.6192 18.252
769 -0.291185 11.8356 82.4793 16.0506
770 -0.0262312 10.9709 80.1843 16.9444
771 -0.304632 9.44979 82.2209 16.8846
772 0.157281 11.7953 82.0843 14.9703
773 -0.107314 10.0023 79.4355 17.778
774 0.164902 8.98017 81.7123 16.0358
775 0.174463 11.7395 83.5614 16.1011
776 0.142016 8.81922 81.9934 17.734
777 0.0111939 10.9386 81.693 17.116
778 0.139285 9.40097 79.9892 18.5096
779 -0.0142392 11.4173 82.1362 18.4526
780 0.140273 12.4468 80.2004 18.8204
781 0.148224 10.4544 84.0956 18.5262
782 -0.106795 12.3051 81.236 19.2156
783 -0.114086 11.1172 83.4447 18.9964
784 -0.159808 12.8684 81.5914 20.432
785 -0.116674 11.7019 83.8063 20.2388
786 0.16065 13.4637 80.8202 20.9469
787 0.177475 11.3997 84.7961 20.6524
788 0.252536 12.5369 82.902 20.9715
789 -0.48021 13.0161 83.3951 22.1424
790 0.173485 11.7781 81.0074 22.3575
791 0.258175 13.271 82.4722 23.1182
792 -0.15041 12.564 81.2192 23.1032
793 0.18863 14.8308 83.6136 24.078
794 -0.129119 14.3251 82.7074 24.0379
795 -0.0908464 12.9577 80.1305 23.9464
796 0.155435 12.4405 79.1816 23.9728
797 -0.0544787 14.6588 81.6488 24.9329
798 -0.0570711 14.0777 80.2655 24.8526