20640
 Atoms. Timestep: 0
2 4.56816 584.363 4.93077
1 4.71112 583.817 42.003
1 3.89719 584.21 40.8694
2 7.10314 578.827 39.6012
2 6.32448 582.596 4.66157
2 8.84228 582.02 40.8512
1 5.68564 582.799 41.8561
1 4.07901 583.458 39.6352
2 3.42326 583.758 38.8203
1 5.88999 581.966 40.6626
1 6.43443 579.761 39.5213
1 5.03398 582.44 39.5481
2 5.49491 579.337 39.7182
1 8.23507 581.596 40.0361
2 6.459 580.162 38.4409
2 5.09508 581.867 38.6031
1 6.91701 580.872 40.5294
2 8.86074 580.869 39.4295
2 7.98526 582.481 39.3888
1 7.14888 580.183 41.7932
2 4.97098 580.116 4.29019
2 9.34109 579.827 41.6497
1 5.99005 579.878 4.55832
1 8.48118 579.772 4.24414
1 6.07557 579.317 5.88696
1 8.61819 579.223 5.53385
2 5.202 579.128 6.51239
2 9.51892 578.798 5.84543
1 7.4039 579.037 6.3207
3 7.5435 578.568 7.59811
2 7.14223 577.062 9.77554
1 6.699 578.87 8.5668
1 6.69009 578.037 9.76332
2 6.03021 580.823 7.62152
1 6.02397 580.17 8.54088
1 6.2547 578.574 10.9485
2 6.39839 578.018 11.8703
1 5.51379 580.717 9.72531
1 5.75273 579.939 10.9993
1 4.80268 582.069 10.0674
3 4.28267 582.839 9.33511
1 5.24779 580.842 12.1139
4 4.75626 582.186 11.6374
3 5.22973 580.406 13.2286
2 3.13069 584.311 10.7651
1 3.84475 583.121 12.4113
1 2.9816 584.096 11.7809
2 4.23105 582.344 14.3741
1 3.6131 583.045 13.7961
1 1.92822 55.7337 12.4441
2 14.55 56.4243 11.8633
1 2.72 583.896 14.5501
1 1.75164 55.5863 13.8694
3 14.455 56.6801 16.8057
4 3.06156 584.145 16.0128
2 14.1865 56.2435 14.2997
1 2.39308 56.3602 16.7387
3 5.45737 583.691 15.7889
1 4.5399 584.283 16.311
1 3.48693 57.11 17.488
1 4.78502 56.3872 17.3091
2 2.39531 58.8174 18.3343
1 3.38518 58.3857 18.1911
1 5.98319 57.0088 17.825
2 6.95624 56.6024 17.503
1 4.56366 58.879 18.7471
1 5.87905 58.2495 18.4751
2 4.42492 59.8425 19.2762
2 8.42038 58.8489 21.0604
3 7.03814 58.7954 18.7942
1 7.80386 59.7226 20.8919
1 7.16361 59.9066 19.5944
2 8.0326 60.5754 22.8223
2 8.50761 63.1465 23.4903
2 5.09634 64.1466 21.4927
1 7.61678 60.7179 21.8638
1 6.50203 61.1262 19.232
2 6.07657 61.2214 18.2166
1 7.51296 62.906 23.8995
1 6.84346 61.9441 21.5918
1 5.89431 64.2411 22.2795
2 7.24486 63.6943 24.621
1 6.39877 62.154 20.2303
2 5.50711 64.8009 23.1595
2 7.63255 62.0086 24.5043
2 6.72024 64.8294 21.8133
1 6.40336 62.7846 22.7519
2 5.86098 63.0851 19.9626
1 5.20878 62.1634 23.3695
2 5.1684 63.481 25.1624
2 4.71257 60.9628 21.6427
1 4.69742 62.6246 24.6597
1 4.38472 61.1749 22.6466
1 3.54226 62.0209 25.2208
1 3.24735 60.6076 23.2724
2 3.15156 62.4353 26.1248
2 2.68645 59.8102 22.7256
1 2.78414 60.948 24.6036
3 1.70872 60.4014 25.2368
2 3.8825 60.5374 26.8283
1 1.74264 60.2443 26.5631
1 2.95772 60.4007 27.3717
2 12.8414 59.8074 26.7314
1 13.7576 59.9572 27.2483
1 2.94856 60.3709 28.7681
2 3.89094 60.4507 29.3322
1 13.6592 59.9695 28.7191
1 1.69524 60.1564 29.5067
1 12.5242 59.6953 29.6688
3 11.3387 59.6437 29.4139
1 1.39831 60.0318 30.9804
4 13.0568 59.7713 31.1238
3 2.18766 60.2344 31.8513
1 12.3593 59.2961 32.3702
2 14.0355 59.8112 33.6902
2 10.5297 58.6683 31.3368
1 13.0556 59.2902 33.5876
1 11.0374 58.7426 32.3097
1 12.5232 58.6887 34.8372
1 10.4341 58.2812 33.5127
2 9.41245 57.8358 33.4851
3 11.9343 57.2939 37.6029
1 11.17 58.2899 34.7272
4 13.3598 58.5906 36.0376
1 13.0148 57.672 37.2588
3 2.42872 59.5163 35.3434
1 1.71397 58.8646 36.0344
2 10.7127 57.8231 35.5725
1 14.2993 57.5315 38.0718
1 2.18923 58.2703 37.3549
2 13.7821 56.2052 39.7432
1 14.5404 56.7727 39.2668
1 3.53118 58.2292 37.8505
2 4.35245 58.7835 37.3993
1 2.68375 56.7014 39.7439
1 3.68448 57.3748 38.974
3 2.95282 56.1143 40.9578
2 4.66817 57.2546 39.4061
2 1.912 64.2091 39.2335
1 14.4609 63.6008 38.5951
1 14.613 63.7446 37.1588
2 10.1773 62.1984 36.9977
2 13.4103 62.8781 40.2556
2 10.8833 59.9146 37.225
1 13.3886 62.871 39.1533
1 13.6697 62.9877 36.3177
2 13.6513 63.0357 35.2007
1 12.4222 62.1531 38.347
1 9.96892 62.166 38.0892
1 12.65 62.2505 36.893
2 9.0064 61.5761 38.2424
1 11.1083 59.9801 38.3419
2 9.84255 63.2278 38.3954
2 11.9185 61.7782 36.2615
1 11.1432 61.4679 38.8265
2 12.1146 59.5027 38.516
2 10.3376 59.4096 38.8814
1 11.009 61.5938 40.3685
2 9.07185 62.7771 40.2325
2 12.89 60.4418 40.7757
1 9.88398 62.3635 40.8921
1 11.9988 60.953 41.2196
1 9.54548 62.2945 4.28041
1 11.787 61.0935 4.59454
2 8.66747 62.7988 4.66716
2 12.4972 60.6331 5.30509
1 10.5449 61.6413 5.10663
3 10.2111 61.6977 6.41922
2 10.5579 61.9187 8.99018
1 10.5527 60.6464 7.1791
1 10.7181 60.9001 8.61651
2 10.455 59.2392 5.53969
1 10.6263 59.3597 6.60452
1 11.0047 59.8739 9.48735
2 11.1407 60.0245 10.5436
1 10.8564 58.2509 7.49553
1 11.1077 58.5161 8.94765
1 11.1196 56.7928 7.11812
3 11.0768 56.2875 6.02208
1 11.4951 57.2078 9.62285
4 11.4816 56.1013 8.52239
3 11.8084 57.0826 10.7675
2 10.553 583.197 6.69116
1 11.0978 583.753 8.80872
1 10.6161 582.893 7.75334
2 11.5695 583.765 10.9112
1 11.1945 583.135 10.106
1 10.2328 581.542 8.03505
2 9.76469 580.904 7.30417
1 10.7902 581.836 10.4664
1 10.351 581.006 9.36294
3 9.07429 579.624 11.9135
4 10.7322 581.423 11.9273
2 9.87864 580.02 9.56577
1 9.62845 580.482 12.4859
3 12.0087 583.218 13.1039
1 11.1574 582.365 13.0864
1 9.34899 580.889 13.9663
1 10.2795 582.011 14.2957
2 7.60191 579.641 14.4579
1 8.26289 580.462 14.7887
1 9.99431 582.695 15.5585
2 10.6315 583.474 15.7774
1 8.04768 581.105 16.0627
1 8.9539 582.197 16.4241
2 7.21863 580.829 16.7726
2 11.3732 582.615 17.6788
3 8.65117 582.903 17.5653
1 10.9202 583.423 18.2445
1 9.47349 583.638 18.3005
2 12.7994 584.207 18.8662
2 13.7344 56.7579 22.0636
2 12.9782 58.0687 18.5065
1 11.6905 584.343 18.9454
1 8.87633 55.5553 19.1957
2 7.83026 55.6877 19.3684
1 12.8013 56.3 21.6363
1 11.1488 56.3622 19.8027
1 13.3705 57.6225 19.4973
2 12.0313 56.15 22.4344
1 9.70404 56.4132 19.9456
2 13.9655 58.4346 19.8822
2 13.0941 584.394 21.2468
2 14.0667 56.7824 19.3769
1 12.1754 57.2399 20.514
2 9.24433 57.0072 20.6502
1 11.6267 58.5555 20.9916
2 12.6397 58.3796 22.9281
2 10.6495 59.1278 19.1754
1 12.1215 59.0245 22.3057
1 10.9021 59.5547 20.1738
1 11.8685 60.3715 22.7032
1 10.6947 60.8864 20.576
2 12.2882 60.6197 23.6599
2 10.1932 61.5717 19.8945
1 11.2226 61.3443 21.8573
3 11.0294 62.6084 22.2048
2 13.759 62.1632 22.321
1 11.9843 63.2641 22.9374
1 13.4071 62.9687 22.9498
2 10.4973 64.6073 23.8047
1 11.5523 64.3266 23.799
1 14.3572 63.6574 23.7916
2 2.17301 63.4017 23.7617
1 12.4571 65.0313 24.6484
1 13.9353 64.6264 24.7291
1 12.225 66.1115 25.6942
3 11.1483 66.5379 26.0019
1 1.45246 65.5722 25.7017
4 13.5708 66.456 26.3462
3 2.61752 65.6363 25.8539
1 13.8002 67.4595 27.5113
2 1.81276 66.0593 28.5152
2 12.4331 69.0214 26.7599
1 14.6042 67.0589 28.5906
1 13.1567 68.7336 27.5775
1 1.51703 67.8835 29.7829
1 13.4427 69.6275 28.6447
2 12.9071 70.5903 28.6013
3 1.41111 68.7389 32.8154
1 14.1683 69.1862 29.773
4 1.98639 67.1778 31.0266
1 1.74608 67.6464 32.5144
3 2.71721 64.9482 30.1644
1 2.3504 65.6485 31.0725
2 14.2844 69.869 30.6307
1 1.95867 66.3779 33.3524
1 2.33781 65.192 32.4936
2 1.68555 66.9867 35.4045
1 1.9549 66.1794 34.7922
1 2.87454 64.0435 33.1605
2 3.1993 63.1593 32.6438
1 2.36131 64.9808 35.4343
1 2.8453 63.9324 34.594
3 2.13366 64.7596 36.7872
2 3.2505 62.9821 34.9777
2 7.68258 581.982 9.69535
1 7.80498 583.05 9.92144
1 7.99672 583.947 8.83573
2 6.59099 583.69 13.9186
2 7.6354 582.787 12.0359
2 9.19156 57.2635 14.6595
1 7.78133 583.52 11.2801
1 8.265 56.2979 9.13706
2 8.58013 56.974 8.32003
1 7.92284 55.8821 11.6149
1 7.57456 584.232 14.0686
1 8.30145 56.7554 10.4992
2 8.36982 583.499 13.8167
1 9.1757 56.9839 13.5891
2 7.57333 55.5135 15.1314
2 8.54296 57.8104 10.6517
1 7.78207 56.3558 13.0626
2 9.97439 56.1692 13.4693
2 9.48483 57.8669 12.9925
1 6.6205 57.2778 13.3216
2 7.1692 57.9617 15.4232
2 5.61734 56.9441 11.3513
1 6.43059 57.9756 14.5988
1 5.52577 57.4709 12.3369
1 5.2229 58.6858 14.8893
1 4.34507 58.1759 12.6243
2 5.00116 59.0196 15.9201
2 3.50365 58.3063 11.9368
1 4.18997 58.8167 13.9036
3 3.04706 59.483 14.1412
2 4.63519 61.62 13.8007
1 3.11086 60.5324 14.9873
1 4.0448 61.6298 14.7512
2 1.66273 59.8661 16.4626
1 2.36797 60.6482 16.227
1 4.32412 62.6702 15.6708
2 5.10548 63.4004 15.5411
1 2.46657 61.7176 17.1399
1 3.54575 62.7491 16.8794
1 1.80314 62.0116 18.4698
3 14.2033 61.2315 18.9021
1 3.64585 63.6259 18.141
4 2.51624 63.2266 19.1315
3 4.57399 64.3703 18.2115
2 13.1178 63.3185 19.9563
1 1.8203 64.2384 20.0304
1 13.6605 64.1164 20.3506
2 3.4171 65.6251 20.389
1 2.38826 65.4424 20.5823
1 12.8351 65.0311 21.1016
2 11.7521 64.8792 21.2347
1 1.65526 66.3978 21.3707
1 13.4853 66.1718 21.5942
3 4.64195 66.8279 22.165
4 2.26534 67.5255 22.1475
2 12.8679 66.8709 22.1622
1 3.74121 67.4246 22.6415
3 13.5593 68.8234 23.1436
1 1.43938 68.3935 23.1877
1 3.82894 68.2319 23.9271
1 2.46852 68.8065 24.2334
2 5.99601 68.2533 24.4671
1 4.9827 68.5888 24.7479
1 2.27495 69.5208 25.4884
2 14.5511 69.9446 25.7645
1 4.76065 69.3197 25.9218
1 3.4104 69.643 26.3523
2 5.59944 69.6179 26.5033
2 3.68799 71.6707 29.6554
3 3.24538 70.1546 27.5544
1 4.2454 70.7372 29.6587
1 3.95613 69.7285 28.6478
2 5.51469 71.2499 31.3781
2 7.29174 66.8308 31.6003
2 7.25571 71.1815 32.5892
1 5.26186 70.5241 30.6059
1 4.62451 68.4478 28.7171
2 4.14616 67.5528 28.1744
1 7.81547 67.7706 31.3804
1 6.03554 69.2663 30.5729
1 7.80794 70.3878 31.9461
2 8.30769 67.8738 30.431
1 5.64556 68.1795 29.7077
2 8.70983 70.1193 32.5602
2 8.66603 67.7511 32.0948
2 8.11397 70.824 30.9946
1 6.92698 69.0424 31.732
2 6.18895 67.2684 29.8248
1 6.27609 68.8303 33.0894
2 4.19145 69.2116 32.3701
2 8.20292 68.4136 34.0978
1 4.85148 68.9432 33.232
1 7.10228 68.4554 34.2355
1 4.22947 68.7142 34.4853
1 6.44665 68.2569 35.493
2 3.15324 68.8673 34.667
2 7.12732 67.9966 36.3412
1 5.02359 68.3603 35.653
3 4.42739 67.9805 36.8172
2 3.33944 67.291 38.9706
1 4.7467 66.8038 37.3469
1 4.00168 66.5065 38.5765
2 6.15552 65.8771 35.7687
1 5.62969 65.7133 36.7801
1 4.07814 65.2458 39.1718
2 3.44663 65.1343 40.0327
1 5.68606 64.4167 37.3753
1 4.86641 64.1585 38.6318
1 6.4059 63.1279 36.9639
3 7.04991 63.0066 35.949
1 5.01053 62.7013 39.0174
4 6.03273 62.0415 38.0019
3 4.49467 62.1723 39.9248
1 6.48642 60.6128 38.0085
2 5.82711 60.0503 39.9818
2 7.22183 60.5755 35.8321
1 6.46199 59.7392 39.1379
1 7.13545 60.0708 36.8469
1 7.01978 58.4477 39.2848
1 7.71175 58.7642 36.8756
2 8.24588 58.3197 36.0387
3 8.62714 55.9238 40.6336
1 7.75312 58.0518 38.1064
4 6.82 57.695 40.553
1 7.74297 56.5214 41.131
3 5.38366 59.2795 41.8657
1 6.09542 58.3189 41.7767
2 8.23862 57.0504 38.0153
1 7.29615 56.3739 4.51721
1 6.29811 57.3918 4.98816
2 8.53851 583.626 5.05106
1 7.74922 584.358 5.38151
1 5.78483 57.3 6.3297
2 5.02511 57.9891 6.72303
1 7.35618 584.399 6.77248
1 6.32721 56.2496 7.16304
3 7.82386 583.455 7.59077
2 5.93299 56.3277 8.23332
2 14.2823 66.3672 39.607
1 13.9577 66.0413 40.5618
1 12.7191 65.3222 40.6844
2 4.50227 65.8146 6.40022
2 2.6872 66.5457 41.4608
2 2.22241 67.6066 6.40876
1 1.668 66.0571 41.6257
1 12.4823 64.6738 41.9454
2 11.5655 64.2815 4.17017
1 14.6128 65.4755 4.87755
1 3.85924 65.8073 5.51299
1 13.3286 64.7992 5.07999
2 4.17961 65.1617 4.717
1 2.05867 66.6331 6.9012
2 3.96687 66.8582 5.14855
2 13.1177 64.3244 6.04831
1 2.39343 65.4145 6.00389
2 14.2702 66.6868 7.29201
2 2.74493 66.7148 7.79713
1 2.42851 64.1424 6.82588
2 3.31247 62.864 5.24108
2 1.54487 65.0659 8.61092
1 3.02994 62.9139 6.30504
1 1.92655 64.1295 8.20119
1 3.28328 61.8447 7.19191
1 1.95305 62.9706 8.99203
2 3.75999 60.9439 6.76971
2 1.71236 63.0399 10.0324
1 2.74288 61.8493 8.56833
3 2.84153 60.7261 9.23967
2 1.49542 58.551 10.2027
1 2.39032 60.5909 10.5512
1 1.46957 59.5157 10.8023
2 3.3355 62.3947 11.3509
1 2.55022 61.6783 11.5032
1 13.8062 59.647 11.9112
2 13.1002 58.8178 12.0116
1 1.58713 61.8457 12.5338
1 13.7473 60.8402 12.7584
1 1.43939 62.9153 13.6641
3 2.07995 63.8835 13.6395
1 12.901 61.1271 14.0072
4 13.5369 62.3636 14.699
3 12.0146 60.4163 14.3389
2 11.2665 61.883 16.2589
1 13.0199 63.0996 15.8662
1 11.827 62.7445 16.5739
2 1.4473 64.5617 15.8418
1 13.6784 64.3216 16.3051
1 11.2695 63.6272 17.5201
2 10.3052 63.3788 18.0612
1 13.2082 65.228 17.2943
1 11.964 64.8386 17.8975
3 2.66413 66.3969 16.2021
4 13.9644 66.4271 17.7416
2 11.4417 65.5072 18.611
1 1.94961 66.9801 16.9723
3 12.3416 67.6046 19.2149
1 13.3743 67.6235 18.6557
1 2.21008 68.4098 17.4476
1 14.3319 68.8084 18.3804
2 4.07819 69.0445 16.4747
1 3.25759 69.3577 17.1518
1 14.2582 70.1531 18.8438
2 13.4108 70.3736 19.4834
1 3.20926 70.6522 17.7119
1 2.1243 71.0865 18.6035
2 4.0796 71.3436 17.5757
2 12.631 71.7581 18.5878
3 2.1368 72.3448 19.0446
1 12.9004 72.6737 19.1637
1 14.2618 73.0021 19.4734
2 10.806 73.2769 19.3087
2 12.0346 77.4913 21.0348
2 9.52627 75.0929 19.1736
1 11.8275 73.532 19.6036
1 14.5122 74.2188 20.2273
2 2.33536 74.5413 20.3943
1 11.2699 77.0608 20.419
1 12.0407 74.7147 20.3875
1 9.51853 75.1796 20.3013
2 11.7011 76.9866 19.4092
1 13.4305 75.0279 20.6311
2 9.13156 74.2266 20.6251
2 10.3685 77.7394 20.3996
2 8.81574 75.9769 20.4359
1 10.9387 75.5998 20.8965
2 13.6758 75.9364 21.1803
1 10.6491 75.5472 22.3613
2 9.32547 77.2832 22.342
2 11.8548 73.797 22.738
1 9.82332 76.5611 22.983
1 11.2224 74.5289 23.2053
1 9.71903 76.6483 24.3744
1 11.0906 74.5662 24.6282
2 9.04705 77.4092 24.8184
2 11.5461 73.8717 25.2979
1 10.2998 75.6223 25.2381
3 10.2318 75.7907 26.5475
2 11.395 76.154 28.7973
1 10.4746 74.749 27.3897
1 11.0967 75.1202 28.6619
2 9.67991 73.0821 26.1567
1 10.0782 73.376 27.1632
1 11.204 74.2324 29.7723
2 11.6689 74.5608 30.6989
1 10.1868 72.4347 28.2371
1 10.6428 72.8796 29.6111
1 10.0458 70.9101 28.3279
3 9.77265 70.2401 27.3753
1 10.5662 71.7855 30.6447
4 10.3069 70.4641 29.8396
3 10.5972 72.0014 31.8363
1 10.6723 69.1442 30.3778
2 11.3093 69.8136 32.3373
2 10.211 68.0002 28.5543
1 11.1896 68.9253 31.7208
1 10.5187 67.9255 29.6485
1 11.4559 67.6529 32.3589
1 10.8705 66.641 30.1664
2 10.7771 65.8065 29.4947
3 11.6567 64.9777 34.1927
1 11.2939 66.5338 31.5195
4 11.6412 67.4734 33.8428
1 11.6233 66.0834 34.6281
3 12.089 69.7336 34.6737
1 11.8735 68.5784 34.8758
2 11.6379 65.5801 31.9466
1 11.6808 66.4353 36.1364
1 11.9417 67.8971 36.2609
2 11.3737 64.518 37.0795
1 11.5551 65.5458 37.253
1 12.0597 68.3596 37.6214
2 12.2258 69.3635 37.8159
1 11.8938 65.9857 38.582
1 12.103 67.4183 38.6842
3 11.8383 65.1731 39.711
2 12.2597 67.8671 39.6519
2 7.36752 71.6385 38.4858
1 7.70055 70.6652 39.0066
1 8.50535 69.6922 38.2841
2 8.75491 69.4728 5.17848
2 6.49014 71.0407 40.8016
2 5.2424 70.402 4.44884
1 7.16816 70.3667 40.2682
1 8.83768 68.4241 38.967
2 9.51556 67.7216 38.4654
1 7.44504 69.1094 40.9232
1 7.71674 69.7293 5.26754
1 8.34438 68.1669 40.2263
2 7.63692 70.843 4.97616
1 5.33814 69.3147 4.4672
2 7.36872 69.5642 6.31351
2 8.54552 67.2095 40.7294
1 6.80283 68.8219 4.29108
2 4.77316 68.7608 41.6993
2 4.82426 68.9237 5.3109
1 6.94694 67.3716 4.58248
2 6.12788 66.5412 40.6615
2 7.85461 67.5477 6.55494
1 6.56942 66.3381 41.6602
1 7.462 66.8532 5.85126
1 6.63436 64.9386 41.9506
1 7.49007 65.4752 6.16044
2 6.25794 64.1688 41.2336
2 7.86811 65.189 7.19475
1 6.9725 64.4662 5.26402
3 6.80548 63.1577 5.50519
2 7.5381 60.7812 6.01276
1 6.82149 62.6911 6.76779
1 7.19952 61.3095 6.90804
2 5.93266 64.3735 7.88219
1 6.32888 63.3623 7.92189
1 7.06899 60.5506 8.12011
2 7.32428 59.5011 8.1722
1 6.36878 62.688 9.17628
1 6.7131 61.2366 9.32558
1 6.1417 63.2117 10.6284
3 5.95662 64.3726 10.8466
1 6.67606 60.8315 10.8122
4 6.28316 62.0802 11.6641
3 7.00256 59.7876 11.3096
2 6.87692 60.2 13.5948
1 6.99592 62.2526 13.0007
1 7.17079 61.1987 13.8903
2 7.1429 64.3983 12.8601
1 7.36326 63.5417 13.5506
1 7.67719 61.358 15.2352
2 7.7805 60.5021 15.9117
1 8.00221 63.8004 14.7554
1 8.08693 62.6827 15.6337
3 8.98338 65.9427 12.6584
4 8.77918 65.1327 14.9413
2 8.52223 62.7662 16.6144
1 8.93072 66.1996 13.8136
3 8.64348 65.5605 17.3308
1 8.76781 65.9454 16.2236
1 9.15622 67.5944 14.3882
1 9.03425 67.4396 15.9024
2 9.6517 69.1001 12.811
1 9.42347 68.9267 13.8913
1 9.10827 68.571 16.7604
2 9.02474 68.4402 17.8585
1 9.5205 70.0248 14.7699
1 9.326 69.8734 16.1964
2 9.7239 70.9779 14.3596
2 8.33584 72.7659 18.6859
3 9.36148 71.0148 16.9149
1 8.85597 71.8715 19.1119
1 9.63601 71.0271 18.2622
2 8.20199 72.2031 21.2162
2 8.75782 68.3374 23.75
2 10.2309 70.2386 24.5926
1 8.79037 71.5623 20.5247
1 10.5137 70.0236 18.826
2 11.1905 69.4168 18.138
1 9.16528 68.6155 22.7902
1 9.52553 70.4371 21.0794
1 10.2468 70.7192 23.6023
2 8.54484 68.0631 22.0362
1 10.531 69.7566 20.2041
2 11.3379 70.5096 23.2725
2 10.2185 68.2872 22.7662
2 10.0521 71.8244 23.7627
1 9.18586 70.2077 22.5644
2 11.194 68.993 20.6246
1 7.81888 70.6796 22.9164
2 6.81758 70.1121 20.9636
2 8.21129 71.0747 25.0421
1 6.71973 70.6033 21.9594
1 7.46095 71.1488 24.2612
1 5.37257 70.9436 22.3082
1 6.18871 71.657 24.5048
2 4.48378 70.7731 21.6178
2 6.0038 72.0744 25.4701
1 5.06978 71.6053 23.5425
3 3.93616 72.3258 23.6503
2 5.75236 74.4372 24.1018
1 3.91633 73.2952 24.5957
1 5.05576 74.1509 24.8824
2 1.92781 72.592 25.2555
1 2.83482 73.1294 25.5363
1 5.32101 74.6273 26.2088
2 6.2372 75.2216 26.4753
1 3.04937 73.6708 26.8208
1 4.33421 74.3574 27.2466
1 2.08944 73.5246 28.0339
3 14.2313 72.9519 28.0333
1 4.30496 74.6569 28.7235
4 2.8778 74.0561 29.2696
3 5.1352 75.2999 29.2712
1 2.66868 73.5758 30.6214
2 4.59497 74.3962 31.3894
2 13.8807 72.7468 30.3427
1 3.73009 73.7059 31.583
1 1.48496 72.8227 31.0168
1 3.74459 73.1542 32.9114
1 1.52866 72.1379 32.2392
2 13.9706 71.502 32.5941
3 4.02892 72.0669 35.8936
1 2.6407 72.2777 33.1424
4 4.8559 73.368 33.8532
1 4.9111 72.4185 35.195
3 6.7264 74.0022 32.4167
1 6.3202 73.542 33.4457
2 2.61513 71.7604 34.1454
1 6.38811 72.0218 35.3331
1 7.26686 72.8374 34.4057
2 6.30707 70.6025 37.0018
1 6.95312 71.1616 36.3355
1 8.69904 72.7333 34.5933
2 9.34795 73.2692 33.8927
1 8.3881 71.002 36.41
1 9.22044 71.8594 35.5521
3 8.9791 69.9719 37.055
2 10.3131 71.7942 35.6643
2 14.0224 71.2785 34.9341
1 14.0193 71.7559 35.8879
1 13.4297 73.0274 36.0358
2 3.13331 69.6983 40.128
2 1.7043 70.1631 36.9321
2 2.60683 71.6279 41.5191
1 14.3999 71.1276 37.1048
1 13.2337 73.628 37.2863
2 12.8512 74.65 37.3905
1 14.1929 71.6482 38.4488
1 2.49471 69.9915 39.3152
1 13.5659 72.9832 38.5192
2 2.02766 69.0539 38.8787
1 2.14532 72.1436 40.6533
2 3.21773 70.3958 38.5119
2 13.4234 73.5025 39.4925
1 1.43184 71.0312 39.7237
2 2.91477 72.6642 40.063
2 14.597 72.8877 41.0396
1 13.6118 70.2875 40.4984
2 11.8404 71.2926 39.5201
2 1.6747 69.0406 41.8651
1 12.1633 70.5729 40.2968
1 13.8854 69.313 41.5838
1 11.2059 69.9201 41.0685
1 12.9202 68.6362 4.33403
2 10.1588 70.1024 40.9277
2 13.1539 67.8764 5.13401
1 11.5201 68.9581 4.08503
3 10.623 68.1139 4.59508
2 9.67596 65.6869 5.39883
1 10.8761 67.4508 5.76462
1 10.2819 66.1857 6.10563
2 11.933 69.2333 6.46816
1 11.6725 68.2193 6.67817
1 10.5455 65.6655 7.44781
2 10.0946 64.7118 7.73334
1 12.0663 67.685 7.95244
1 11.4145 66.372 8.35919
1 12.7616 68.3121 9.16928
3 13.3853 69.316 9.11059
1 11.9381 65.9771 9.74213
4 12.7148 67.2301 10.2916
3 11.9036 64.8504 10.1559
2 12.7246 65.5297 12.47
1 12.6184 67.6071 11.7518
1 12.6376 66.5854 12.7691
2 12.4673 69.7852 11.4942
1 12.6055 68.9664 12.1979
1 12.7721 66.9312 14.1306
2 12.8734 66.1714 14.9187
1 12.6564 69.3348 13.5622
1 12.8042 68.3353 14.5461
3 11.401 71.7675 11.8179
4 12.3331 70.8303 13.9079
2 12.6757 68.5932 15.5805
1 11.6725 71.8488 12.9651
3 12.5388 70.8296 16.3529
1 12.1951 71.391 15.32
1 11.1995 73.0271 13.8133
1 11.6299 72.8252 15.2528
2 10.0093 74.401 12.6273
1 10.4334 74.2356 13.6171
1 11.5216 73.8189 16.2971
2 11.9491 73.6332 17.2664
1 10.2927 75.2197 14.6516
1 10.8605 75.0229 15.9583
2 9.76109 76.1479 14.4136
2 12.2883 77.3632 15.2999
3 10.4954 75.9321 16.9252
1 11.64 77.9305 15.9827
1 10.6453 77.2495 16.8174
2 12.5192 79.7886 15.4885
2 12.8897 82.331 16.4112
2 9.43687 83.3328 16.6777
1 11.7877 79.3168 16.1093
1 9.82595 78.0713 17.6908
2 9.05637 77.6192 18.252
1 11.8356 82.4793 16.0506
1 10.9709 80.1843 16.9444
1 9.44979 82.2209 16.8846
2 11.7953 82.0843 14.9703
1 10.0023 79.4355 17.778
2 8.98017 81.7123 16.0358
2 11.7395 83.5614 16.1011
2 8.81922 81.9934 17.734
1 10.9386 81.693 17.116
2 9.40097 79.9892 18.5096
1 11.4173 82.1362 18.4526
2 12.4468 80.2004 18.8204
2 10.4544 84.0956 18.5262
1 12.3051 81.236 19.2156
1 11.1172 83.4447 18.9964
1 12.8684 81.5914 20.432
1 11.7019 83.8063 20.2388
2 13.4637 80.8202 20.9469
2 11.3997 84.7961 20.6524
1 12.5369 82.902 20.9715
3 13.0161 83.3951 22.1424
2 11.7781 81.0074 22.3575
1 13.271 82.4722 23.1182
1 12.564 81.2192 23.1032
2 1.60447 83.6136 24.078
1 14.3251 82.7074 24.0379
1 12.9577 80.1305 23.9464
2 12.4405 79.1816 23.9728
1 1.43246 81.6488 24.9329
1 14.0777 80.2655 24.8526
1 2.46797 81.7041 26.1067
3 3.1454 82.6056 26.454
1 14.563 79.4074 26.0076
4 2.20002 80.2754 26.8693
3 14.2116 78.2519 26.127
1 3.15088 79.7092 27.8818
2 1.86763 78.1015 28.58
2 4.86524 81.0043 27.4169
1 2.8202 78.633 28.7551
1 4.47842 80.2715 28.1002
1 3.60805 78.0972 29.8353
1 5.33946 79.8047 29.0891
2 6.31081 80.2907 29.1599
3 13.9366 76.7178 30.1708
1 4.91343 78.7338 29.9087
4 3.10496 77.1646 30.8348
1 1.58626 76.606 30.9448
3 4.39607 77.9476 32.7654
1 3.60655 77.1962 32.3165
2 5.57974 78.2674 30.587
1 1.45803 75.9244 32.2961
1 2.67356 76.3007 33.1376
2 12.9346 74.7279 32.3546
1 13.8087 75.0444 32.9734
1 2.8426 75.8545 34.4915
2 3.75015 76.1064 35.073
1 13.9416 74.594 34.3785
1 1.82627 75.1052 35.1376
3 13.065 73.7707 34.8859
2 2.00486 74.8009 36.1449
2 8.4 67.1794 10.4085
1 7.74256 68.014 10.7664
1 8.15836 69.3394 10.463
2 3.65264 66.6799 11.4625
2 6.13105 66.7302 11.4749
2 3.18969 67.9306 14.0321
1 6.44895 67.8137 11.3452
1 7.34758 70.4552 10.9428
2 7.67837 71.483 10.8241
1 5.54371 68.8521 11.6991
1 3.21994 67.7038 11.391
1 6.06548 70.2298 11.4646
2 2.17736 67.6931 11.8369
1 4.234 68.0267 13.663
2 3.19118 68.0486 10.3682
2 5.40584 71.0777 11.7109
1 4.12978 68.6962 12.2292
2 4.78134 66.9896 13.5622
2 4.79719 68.6582 14.4191
1 3.37866 70.0048 12.3383
2 2.01999 69.8844 10.5375
2 4.52648 70.6681 14.1198
1 2.31555 70.4792 11.4271
1 3.74335 70.9265 13.4115
1 1.58339 71.6404 11.6536
1 2.99124 72.0927 13.6175
2 13.92 71.88 10.9612
2 3.37614 72.6939 14.4373
1 1.88489 72.5113 12.7506
3 14.4758 73.6698 12.8243
2 1.49788 72.6457 15.4734
1 14.5422 74.3131 14.0365
1 1.48597 73.7232 15.3351
2 14.3405 76.1283 12.9205
1 14.4573 75.7246 13.9406
1 1.60491 74.4858 16.533
2 1.64816 74.0022 17.4793
1 14.597 76.5583 15.1224
1 1.50188 75.9528 16.5119
1 1.60863 78.0049 15.3163
3 1.63164 78.8063 14.4199
1 1.52214 76.9883 17.5958
4 1.63946 78.3811 16.8104
3 14.5881 76.8983 18.777
2 1.83158 80.8549 15.5711
1 1.98648 79.7281 17.4074
1 2.06604 80.9342 16.6596
2 2.24062 79.094 19.3944
1 2.22302 79.9563 18.8003
1 2.47804 82.1684 17.2018
2 2.51962 83.0458 16.5217
1 2.66195 81.1556 19.4797
1 2.81238 82.2572 18.6044
3 3.13609 78.7889 21.5463
4 2.98722 81.2308 20.9408
2 3.14819 83.2235 19.019
1 3.27068 79.9669 21.829
3 3.75655 83.5457 21.2161
1 3.66584 82.46 21.6242
1 4.09235 80.4462 23.0234
1 4.33366 81.9085 22.9204
2 4.60357 78.5956 24.252
1 4.71105 79.7171 24.1373
1 5.18566 82.5874 23.8466
2 5.35462 83.6316 23.7006
1 5.4978 80.4549 25.0526
1 5.77442 81.8756 24.9482
2 5.87614 79.9264 25.8733
2 6.96111 83.439 28.1355
3 6.41661 82.5908 25.8268
1 7.71432 82.6641 27.8228
1 7.47639 82.0499 26.564
2 8.91278 82.6068 29.6152
2 11.5241 78.8465 27.6954
2 12.3916 81.5647 30.1378
1 8.7554 82.1794 28.6525
1 8.26831 81.0072 26.051
2 8.07342 80.6212 25.0911
1 11.8704 79.736 28.2937
1 9.56052 81.0459 28.1827
1 11.3516 81.7719 29.8034
2 12.4716 80.4062 27.6612
1 9.39548 80.5141 26.8366
2 11.4054 82.7552 29.2261
2 12.6131 79.2794 28.99
2 10.7635 82.0457 30.736
1 10.7473 80.5242 29.0267
2 10.0291 79.6955 26.4717
1 10.2219 79.5032 29.9514
2 8.84404 78.5392 28.4608
2 11.5683 80.0201 31.7419
1 9.27685 78.4996 29.5021
1 10.7611 79.4001 31.2863
1 8.80242 77.4716 30.343
1 10.2882 78.3571 32.1265
2 8.11883 76.6926 30.0296
2 10.6463 78.2732 33.1731
1 9.22605 77.4478 31.7381
3 8.32812 76.8854 32.5654
2 10.8504 76.1548 33.4305
1 8.69838 76.5728 33.8052
1 10.0196 76.0601 34.187
2 6.56954 76.6417 34.4145
1 7.61285 76.3609 34.6972
1 10.3044 75.4365 35.408
2 11.3121 75.0905 35.6672
1 7.83029 75.6552 35.9348
1 9.21033 75.1551 36.3068
1 6.83594 75.2462 37.001
3 5.65929 75.5054 37.01
1 9.01378 74.4038 37.6322
4 7.58197 74.3315 38.0901
3 9.99737 73.843 38.0355
1 7.1235 74.297 39.5218
2 8.97379 73.914 40.6323
2 5.05138 74.5913 38.7741
1 7.86142 74.0378 40.7183
1 5.68924 74.4385 39.6735
1 7.18786 73.8428 41.9952
1 4.99933 74.3001 40.9073
2 3.87746 74.4159 40.9559
3 5.88 72.8421 6.85353
1 5.7689 73.9995 4.05389
4 7.83641 73.4222 5.24115
1 7.05227 72.7982 6.54832
3 10.227 73.2819 4.63319
1 9.28197 73.0837 5.35291
2 5.28452 73.9421 5.04085
1 8.17579 72.1643 7.34848
1 9.53763 72.3507 6.68586
2 7.0698 71.0167 8.84521
1 8.10292 71.2596 8.46486
1 10.7109 71.6705 7.07231
2 11.7112 71.8041 6.61354
1 9.30522 70.6151 8.94059
1 10.5836 70.9621 8.30182
3 9.26952 69.5153 9.71395
2 11.4812 70.6105 8.76588
2 10.3854 77.1406 12.1753
1 9.67392 76.5604 11.6471
1 9.97632 75.9326 10.395
2 5.2574 77.2398 10.9401
2 8.02169 76.7089 13.1038
2 4.84725 74.7555 10.138
1 8.36058 76.2916 12.1638
1 9.13518 75.0084 9.6642
2 9.55213 74.5741 8.73992
1 7.4245 75.4795 11.3977
1 5.45668 76.9232 11.9626
1 7.81763 74.8447 10.1312
2 4.40048 76.8948 12.3618
1 5.03808 74.4579 11.2277
2 6.06044 77.6306 12.5327
2 7.15353 74.2217 9.58629
1 6.01818 75.4232 11.9816
2 5.45104 73.3516 11.3142
2 4.00205 74.3448 11.6159
1 5.98378 74.8848 13.3877
2 7.71639 73.5183 12.9762
2 4.05487 75.8303 14.1138
1 6.95404 73.8468 13.7319
1 4.89999 75.1432 14.358
1 7.06232 73.3029 15.0106
1 4.9581 74.54 15.6229
2 7.87569 72.6005 15.2995
2 4.13414 74.7053 16.3088
1 6.12204 73.7522 16.0302
3 6.44854 73.6511 17.3233
2 6.13441 73.581 19.8483
1 6.18533 74.7489 18.0489
1 6.28897 74.5733 19.4903
2 6.15237 76.2515 16.4549
1 6.25672 76.0982 17.5558
1 6.47074 75.6213 20.4119
2 6.5037 75.3735 21.4822
1 6.36918 77.1931 18.4432
1 6.50262 76.9647 19.9456
1 6.33635 78.715 18.3216
3 6.21136 79.2994 17.2841
1 6.60486 78.2978 20.7041
4 6.57939 79.4221 19.6648
3 6.83794 78.4726 21.8502
2 5.93025 81.6725 18.0296
1 6.59718 80.9581 19.8964
1 6.33904 81.9515 18.9645
2 7.30366 80.6613 21.8412
1 7.1415 81.4851 21.1307
1 6.54181 83.3888 19.2014
2 6.23102 84.0965 18.3631
1 7.42703 82.8661 21.4927
1 7.10976 83.7893 20.4593
3 9.50326 81.1157 23.1656
4 8.16566 83.2509 22.7222
2 7.36612 84.8075 20.5911
1 9.3032 82.2583 23.3516
3 8.15393 85.6889 22.521
1 8.61855 84.694 22.9781
1 10.0508 83.2255 24.2585
1 9.73628 84.6857 23.9934
2 11.1806 81.7899 25.4678
1 11.0514 82.7929 25.243
1 10.5362 85.6434 24.7167
2 10.3443 86.7306 24.5186
1 11.732 83.8255 25.8864
1 11.5359 85.2471 25.6292
2 12.5217 83.492 26.546
2 10.9199 85.1454 28.1318
3 12.2961 86.2557 26.1803
1 11.8492 85.6364 28.4587
1 12.7108 86.2585 27.449
2 11.6127 85.0717 30.4364
2 1.65707 87.8887 31.9074
2 12.251 87.2652 32.4213
1 12.253 85.6276 29.7835
1 13.9607 86.8322 27.8767
2 14.552 87.2585 27.0566
1 1.9285 86.8183 32.1135
1 13.5337 86.1858 30.2536
1 12.7335 86.3122 32.6127
2 2.14676 86.6963 33.1721
1 14.3948 86.8221 29.2044
2 11.9911 85.5676 32.6848
2 2.85669 86.4685 31.5897
2 13.177 86.3943 33.647
1 13.9426 85.8763 31.6775
2 2.11577 87.3096 29.4976
1 14.345 84.4032 31.8695
2 1.39196 83.9356 29.7342
2 14.5113 84.3994 34.0557
1 14.6088 83.4899 30.7734
1 1.38748 83.8029 33.1967
1 1.74155 82.1183 30.948
1 1.75879 82.4453 33.344
2 1.96133 81.5693 30.0863
2 1.90372 82.1412 34.4124
1 1.84691 81.5057 32.2472
3 1.88681 80.1562 32.3571
2 13.2093 78.4149 32.5737
1 1.58383 79.6119 33.5617
1 13.7449 78.6078 33.5332
2 3.10177 80.5552 34.8755
1 2.32562 79.774 34.7789
1 13.3818 77.7757 34.5908
2 12.6358 76.998 34.5212
1 1.9379 79.005 35.9713
1 14.0632 77.9992 35.8734
1 2.64779 79.0029 37.3276
3 3.65788 79.6398 37.4585
1 13.7733 77.3982 37.2266
4 1.83819 78.0289 38.1751
3 12.7584 76.8568 37.5109
1 2.20889 77.5241 39.4762
2 13.5485 76.5419 40.0038
2 4.21836 78.399 39.5498
1 1.39065 76.6657 40.3176
1 3.52656 77.7683 40.0593
1 1.68079 75.9725 41.533
1 3.86071 77.1477 41.2637
2 4.89019 77.3865 41.6598
3 1.73352 74.3294 6.26091
1 2.98088 76.2234 41.9643
4 13.8003 75.2884 4.31361
1 14.021 74.9426 5.8049
3 11.6564 76.0725 41.3421
1 12.2797 75.6375 4.22436
2 3.35659 75.7686 4.82947
1 12.8359 75.4034 6.64162
1 11.7302 75.7066 5.65568
2 13.474 75.164 8.76484
1 12.6329 75.3796 8.06446
1 10.431 76.0845 6.15422
2 9.63464 76.3471 5.43845
1 11.3518 75.8095 8.47215
1 10.2795 76.132 7.54651
3 11.1274 76.1552 9.80663
2 9.29175 76.4491 7.9442
2 3.69406 80.3321 39.9211
1 3.51575 80.3255 41.0241
1 4.61061 80.5586 41.9139
2 12.8419 81.6344 41.951
2 14.5733 79.9755 40.8829
2 12.7226 79.0896 41.6417
1 2.18764 80.1854 41.5896
1 4.37249 80.6663 5.31402
2 5.14366 80.8821 6.02543
1 1.89571 80.2886 4.9727
1 12.8409 81.3546 5.02265
1 3.04078 80.6151 5.82909
2 11.8074 81.1754 5.29805
1 13.0874 78.7419 4.60116
2 13.2735 82.2065 5.58692
2 2.8474 80.6532 6.89065
1 13.7054 80.0157 5.34381
2 13.8505 77.9269 4.42167
2 12.2255 78.3759 5.19088
1 13.6457 79.7626 6.81014
2 12.2962 81.3584 7.39078
2 1.70075 77.9086 6.51535
1 12.8402 80.486 7.77577
1 14.3592 78.5723 7.24377
1 12.7974 80.0995 9.13219
1 14.2254 78.1435 8.60036
2 12.1476 80.6038 9.82976
2 1.52275 77.1948 8.92047
1 13.5085 78.909 9.60775
3 13.5571 78.5848 10.8752
2 1.90583 80.2642 12.1956
1 13.0937 79.5863 11.7607
1 14.0454 80.5344 12.2615
2 10.8926 79.0883 11.6663
1 11.6987 79.8269 11.9697
1 13.6424 81.8546 12.6246
2 14.4626 82.5318 12.8988
1 11.2908 81.1174 12.4335
1 12.2444 82.2598 12.6367
1 9.86449 81.7241 12.7553
3 8.81133 81.1566 12.8189
1 11.5901 83.6578 12.8592
4 10.0706 83.2136 13.0699
3 11.9961 84.7631 12.9044
2 7.28954 83.0059 13.5115
1 9.14435 84.0527 13.9192
1 7.77241 83.7128 14.1877
2 10.5169 85.5038 14.5104
1 9.58629 85.0971 14.7802
1 6.99534 84.1843 15.2532
2 5.9363 83.885 15.3756
1 8.9659 85.6002 15.9519
1 7.6248 85.1479 16.1475
3 12.0884 86.4149 16.0411
4 9.71787 86.4554 16.9354
2 6.96381 85.5635 16.8785
1 11.2811 86.6274 16.9056
3 8.06531 86.5132 18.7953
1 9.18649 86.726 18.3684
1 11.6324 87.124 18.291
1 10.43 87.0985 19.1677
2 13.7713 87.722 18.1188
1 12.9168 87.6619 18.811
1 10.5742 87.5173 20.5533