LAMMPS data file via write_data, version 19 Nov 2024, timestep = 0, units = real

20640 atoms
4 atom types

1.3868249283318805 14.613175071668124 xlo xhi
55.472997133286924 584.5270028666926 ylo yhi
3.9862549033768566 42.00374509662609 zlo zhi
0 0 0 xy xz yz

Masses

1 12.0107
2 1.00794
3 15.999
4 14.0067

Atoms # charge

591 1 -0.05650822413352877 6.713103447881999 61.236628865400704 9.325584975788546 0 0 0
585 1 -0.1158400532394277 7.199516775346759 61.30949666112638 6.908043122005456 0 0 0
412 1 -0.1582851265328645 6.3272112371586555 56.24955348082038 7.1630408566014925 0 0 1
410 2 0.1426694285252172 5.025109966673339 57.98906940674774 6.723034119715352 0 0 1
409 1 -0.09837753581454239 5.784828628170175 57.29997631976591 6.329700487615924 0 0 1
583 2 0.1790951447144276 7.538099209407789 60.78122689479449 6.012764627437994 0 0 0
406 1 -0.03521685830884815 6.298105526966261 57.39179700043448 4.98815989244369 0 0 1
405 1 -0.05338481286921047 7.296149272341578 56.37391339708881 4.517205503005272 0 0 1
441 2 0.174294467311235 3.75998651834713 60.94388469238473 6.769711963778837 1 0 0
414 2 0.1465107805319328 5.932989942139882 56.32766378258884 8.233323403349367 0 0 1
588 1 -0.08842468009228385 7.068987893758641 60.55063731545464 8.12011316910869 0 0 0
444 3 -0.5029242481067823 2.8415261011458535 60.726074953249444 9.239670364490788 1 0 0
443 1 0.2719211870802241 2.742883543062863 61.84934944603543 8.568325616961243 1 0 0
439 1 -0.1171524263872893 3.2832810316542362 61.84466955984495 7.191906209693086 1 0 0
589 2 0.1379129162854244 7.324284932174611 59.50111048371973 8.172196214220774 0 0 0
445 2 0.1424200582933197 1.4954247016418536 58.55100974059686 10.202682127552132 1 0 0
285 2 0.1526258457695105 8.580133743231126 56.97403592696167 8.32003476723469 0 0 0
284 1 -0.1574713308332578 8.265002738890212 56.297934550612034 9.137063307779329 0 0 0
170 1 0.2466008538268821 10.552693026741455 60.64640841211859 7.179098388950323 0 0 0
174 1 -0.07904862444328087 11.004668977018206 59.87388405284682 9.487345644099161 0 0 0
177 1 -0.06887795485653 11.107674419523956 58.51605222842257 8.947645076484159 0 0 0
180 1 0.3953190317396573 11.495080362111132 57.20783965070682 9.622845808570688 0 0 0
171 1 -0.1308599487967393 10.718130525067409 60.90012430678564 8.616507156677468 0 0 0
176 1 -0.04951480146198019 10.85641933753973 58.250858749029526 7.495528299394843 0 0 0
178 1 0.3770495149904169 11.119575396481288 56.7928484766109 7.118118432596745 0 0 0
173 1 -0.1580048215427654 10.626327120561179 59.359716708227815 6.604524949634365 0 0 0
172 2 0.1678273028027324 10.454988921932923 59.239155290475814 5.539694104256577 0 0 0
179 3 -0.4671374792996176 11.076772892018923 56.287541561254436 6.022075151416131 0 0 0
181 4 -0.4361551137626056 11.481584431862544 56.101298529933366 8.522391062171828 0 0 0
167 1 0.2339210155705893 10.544881439755919 61.641325439723566 5.10663404581433 0 0 0
168 3 -0.5152699264426699 10.211146611890467 61.69772810351953 6.419220279346594 0 0 0
169 2 0.1786903740764412 10.557884046405256 61.918673682282474 8.990176241695035 0 0 0
166 2 0.1511581313099183 12.497248663663552 60.63314887190107 5.3050881782488855 0 0 0
164 1 -0.1574238462396271 11.786994292114823 61.0935342434647 4.594541399445731 0 0 0
584 1 0.2655155180980767 6.821493724169098 62.69108897782619 6.767790224549994 0 0 0
435 2 0.1611752889564255 3.312471373049529 62.86399442029515 5.241079650935806 1 0 0
437 1 -0.09340829866203736 3.0299417954923524 62.913872679945676 6.30504365250575 1 0 0
590 1 -0.03418489297339193 6.3687814401665825 62.687998462936534 9.176278386032163 0 0 0
582 3 -0.5184771478008586 6.805483089415012 63.15766693118372 5.505194084295834 0 0 0
587 1 -0.1505167265591644 6.328879316876406 63.36231878904641 7.9218868308216654 0 0 0
586 2 0.1480914796467489 5.932658231102622 64.37351601309236 7.882186686017253 0 0 0
425 1 -0.3135979955459522 3.8592448614719563 65.8072753213638 5.512985220777152 1 0 0
580 2 0.1373308701287306 7.868111489953913 65.18901906922252 7.194745121717073 0 0 0
578 1 -0.179481258577814 7.49007409609235 65.47522689664106 6.160436314955434 0 0 0
576 1 -0.1124348230610041 7.461997191622388 66.85319383077606 5.8512636237418505 0 0 0
581 1 0.2411876374894574 6.972496051263026 64.46615478515318 5.26401656238694 0 0 0
431 1 0.01952387458321445 2.39343229416163 65.41450269248406 6.00389062783298 1 0 0
418 2 0.1315851874482894 4.502268737546746 65.81459252640101 6.400221387522525 1 0 0
572 1 -0.0210269535973513 6.946944490546017 67.37155328760902 4.582484447550513 0 0 0
574 2 0.1348913682435895 7.854608710029244 67.54765572702144 6.554941929982187 0 0 0
427 2 0.1440273678027504 4.179608801370156 65.16166473948178 4.717000174926674 1 0 0
434 1 -0.01647200279477865 2.4285121434946513 64.14236083122921 6.8258790625849395 1 0 0
429 2 0.1015744504956009 3.9668696876889946 66.85817301164826 5.148549610826597 1 0 0
440 1 -0.1468570924056432 1.953045679375021 62.97057080173863 8.992028733352097 1 0 0
433 2 0.1160240629660206 2.7449254138233954 66.71479344803929 7.797128710572197 1 0 0
420 2 0.1165936401882704 2.2224073159238396 67.60662956369104 6.408756856108635 1 0 0
428 1 -0.3147959115328069 2.0586713116518456 66.63306906600957 6.901197933229467 1 0 0
438 1 -0.1016944852624868 1.9265464468867353 64.12950898341957 8.2011918689556 1 0 0
442 2 0.1677450318413891 1.712359610904842 63.03985602950933 10.032367566270809 1 0 0
436 2 0.1372077178693162 1.5448731809806384 65.0658940558594 8.610919038168579 1 0 0
424 1 -0.005002815444275825 14.612769155407634 65.47553189369071 4.877553615237809 0 0 0
432 2 0.1417566095894727 14.27019659519383 66.68680244419978 7.292007366303036 0 0 0
732 1 0.3894722001690569 11.938110660153075 65.97708516404693 9.742128483877528 0 0 0
730 1 0.4010297874222006 12.761562730567867 68.31213714874907 9.169283461659873 0 0 0
729 1 -0.04583845489648652 11.41447500648362 66.37201932518452 8.359185076118598 0 0 0
728 1 -0.06391248902915388 12.066267067605878 67.68499474680814 7.9524448857579655 0 0 0
727 2 0.1563771093174326 10.094640703979316 64.71183126324384 7.733343851740256 0 0 0
726 1 -0.08337407524024557 10.545517904515023 65.66546465756062 7.447812410688833 0 0 0
725 1 -0.1537015320602377 11.672489178037974 68.21929253088672 6.678173468248943 0 0 0
430 2 0.1446303601280647 13.117725220460073 64.32440997573106 6.048311025387383 0 0 0
723 1 -0.1525177444374715 10.281945861773497 66.18571186875519 6.105627057856035 0 0 0
722 1 0.2539411971390916 10.876143653293813 67.45077856062098 5.764617147519651 0 0 0
718 2 0.1439803956652559 13.153929737237881 67.8764208388998 5.134014327990265 0 0 0
721 2 0.1626994308391971 9.675958138546463 65.68690579853128 5.398829735581941 0 0 0
426 1 -0.1058843429400015 13.328603916514385 64.79918993903892 5.079991981312094 0 0 0
165 2 0.1983447393647767 8.667474096593292 62.79882425503608 4.6671557730388145 0 0 0
734 3 -0.440745221577046 11.903553822660893 64.85038769319411 10.15585257899995 0 0 0
720 3 -0.518070462616554 10.623014523253342 68.11387705113441 4.595084096408778 0 0 0
716 1 -0.1515473976725985 12.920165196872397 68.63617824204687 4.334029011526715 0 0 0
733 4 -0.4460805491828984 12.71480888464885 67.23007660394907 10.291570892401545 0 0 0
163 1 -0.1418271933644571 9.545477410885681 62.294452732984645 4.280411374338799 0 0 0
423 2 0.16480269455644 11.565464427379343 64.28153514188168 4.170168331924578 0 0 0
569 1 0.01502187885111716 6.802832677332001 68.82192327089417 4.2910789435626215 0 0 0
566 1 -0.3216550926229972 5.338137129348578 69.314708912714 4.467203683224517 0 0 0
567 2 0.1397611435705947 7.368717507131512 69.56415609561691 6.313506006911657 0 0 0
571 2 0.1165881901567368 4.82426326705326 68.92373762946752 5.310896574088343 0 0 0
563 1 -0.2989104139959277 7.716737725124561 69.72928260943124 5.267544402621434 0 0 0
959 2 0.1527106356220613 7.0697963199365885 71.01667599381781 8.845208743442752 0 0 1
950 3 -0.4621141153334191 5.880003492718591 72.84212623007599 6.853532652701201 0 0 1
982 2 0.1413719019810147 7.153531469672233 74.22166555515297 9.586291148843468 0 0 0
953 1 0.3521624478715597 7.0522699653812255 72.7982283576693 6.548319179567297 0 0 1
952 4 -0.461952346422596 7.836414214941975 73.42224992199567 5.241150708250895 0 0 1
972 2 0.1487849526480052 4.847250133797156 74.75552839128727 10.138034374478297 0 0 0
956 2 0.1919018911068134 5.28452235631565 73.94207313229477 5.040853482384533 0 0 1
1088 3 -0.4412348123730364 1.7335239331635681 74.32939737163379 6.260905158337208 1 0 1
565 2 0.1552263695493851 7.636917728789616 70.84295444637192 4.976156985577704 0 0 0
978 1 -0.1183417608648498 7.817632742958904 74.84471303653984 10.131162038270734 0 0 0
951 1 -0.1279402566001364 5.7689036754008995 73.99954338311892 4.053893279461371 0 0 1
558 2 0.1358031999990314 5.242403286216866 70.40202762707024 4.448842199254138 0 0 0
960 1 -0.1642523601690479 8.102920421887102 71.25957094207091 8.464855892124092 0 0 1
957 1 -0.06500680156917593 8.175785495010825 72.16434390506562 7.348478710068407 0 0 1
974 1 -0.1550416627299327 9.13517741023438 75.00836911945903 9.664202165935745 0 0 0
975 2 0.1609224791567903 9.552130113772993 74.57410984155923 8.73992050771244 0 0 0
724 2 0.1590898612406789 11.93299011318511 69.23334366215602 6.468157224926829 0 0 0
731 3 -0.5104389789819336 13.385298346341123 69.31598612781409 9.110592765889212 0 0 0
556 2 0.1821801434621051 8.754905557570746 69.47276689901415 5.178482636833109 0 0 0
965 3 -0.4873931976330304 9.269518554792015 69.51525290817024 9.713947250141558 0 0 1
963 1 0.2592056004862716 9.305217846474964 70.61511159597143 8.94059126426793 0 0 1
958 1 -0.04789241909791361 9.53763165830161 72.35072658002352 6.685861042524758 0 0 1
955 1 0.3959492637461924 9.281968348468936 73.08365585621033 5.352911653958511 0 0 1
966 2 0.2049934060119026 11.481167398197329 70.61048892916679 8.765878703466097 0 0 1
964 1 -0.1287462663185189 10.583616559637274 70.96206381653587 8.301820149125115 0 0 1
961 1 -0.08503547754263734 10.710888939919073 71.67045110525815 7.072313991054708 0 0 1
962 2 0.1626340484674149 11.711174138981995 71.80410448476523 6.613540300797378 0 0 1
1097 2 0.1804357521168015 13.474013093304457 75.16401881090594 8.764839927595212 0 0 1
1091 1 0.3809913343339464 14.020998888047025 74.94259476583065 5.8049005083708 0 0 1
954 3 -0.4403203491480694 10.22702407193503 73.28188975062275 4.633185086029213 0 0 1
719 1 0.2526565110623512 11.520054523223013 68.95812530043814 4.0850328941767815 0 0 0
1090 4 -0.455200704730823 13.8002606660141 75.28841623424788 4.313614476552189 0 0 1
1094 2 0.1671628332036031 3.356585790720345 75.76859094819203 4.829472563539661 1 0 1
1116 1 -0.1067012309465323 3.040783408490059 80.61512186981903 5.829089091120495 0 0 0
1285 4 -0.4130106833104542 5.9563249733510775 80.23441652606517 9.485513939854702 0 0 0
1282 1 0.3872788162470454 5.764941506516322 79.17049131368906 8.340765363104097 0 0 0
1283 3 -0.4756607953418682 4.783599350818301 78.51753177714829 8.307947052759278 0 0 0
1287 2 0.1774514802715215 3.1127110690206496 79.73699674091952 9.626555017307384 0 0 0
1280 1 -0.0642672076168815 6.966542845240322 79.19672662938768 7.435561823214423 0 0 0
1112 1 -0.1313872853363085 4.372487854749681 80.66627200892323 5.314015173542483 0 0 0
1289 1 -0.1243230705608591 3.426134344384854 80.75745910440868 9.82544458940167 0 0 0
1288 1 0.1861241399604451 4.828066650498424 81.05412308262754 10.022367384008868 0 0 0
1276 2 0.1683901581646753 6.42792070247701 77.92643862403453 5.775197547864066 0 0 0
1277 1 -0.1259485872464114 7.216177080063345 78.57477473564123 6.16128558880304 0 0 0
1284 1 0.3949977437516728 7.404031589018031 80.80012236066874 9.302792921132788 0 0 0
1120 2 0.1475359534644829 2.847396230427729 80.65322395628938 6.8906527071211485 0 0 0
1113 2 0.1675008790832865 5.143660248019051 80.88206401619928 6.025433575481756 0 0 0
1114 1 -0.01489675950767726 1.8957055055948484 80.28860316131625 4.972704775576573 0 0 0
1292 1 -0.1071339763612463 2.4443371995983774 81.74715422639748 10.01584635939183 0 0 0
1126 2 0.1462187581888562 1.7007529117895763 77.90864326207783 6.515354572667188 0 0 0
1132 2 0.1661027912833935 1.522753530647607 77.1947761299785 8.920468744437864 0 0 0
1281 1 -0.05090641181009405 7.99167904879269 80.12727753651237 8.086671385164694 0 0 0
1286 3 -0.4342583161623476 7.911237198473764 81.74226787264647 9.84718509299583 0 0 0
1293 2 0.1242402146470174 14.600389263145715 81.50257076143194 9.851237011807346 -1 0 0
1098 1 -0.1148945398107098 12.632945630867898 75.37957489143905 8.064459801293491 0 0 1
1101 1 0.238559131113687 11.351841700335012 75.80952849583444 8.47215029346236 0 0 1
1103 3 -0.4808283413687067 11.127443181747385 76.15518999855442 9.806625577885569 0 0 1
1099 1 -0.06368757960720411 10.430960299547358 76.08445030352226 6.154215664077098 0 0 1
1104 2 0.1587872617727454 9.291746936004 76.44906118001788 7.9441966359691305 0 0 1
1102 1 -0.1540967767748863 10.2795102779701 76.13203030536484 7.546511565504957 0 0 1
1100 2 0.1968714394652895 9.634640108845243 76.34707970899092 5.438449087306591 0 0 1
1096 1 -0.03576822840182987 11.730156527870783 75.70655550965235 5.655682230286739 0 0 1
1095 1 -0.05476542138088007 12.835852931919714 75.40338409041155 6.641617443638436 0 0 1
1093 1 0.4160170339155972 12.279670902566664 75.63751451697738 4.224357659969398 0 0 1
1130 1 -0.1289493196691134 14.225398273093479 78.14346262526041 8.600358959710265 -1 0 0
1128 1 -0.09605605684941063 14.359202447838712 78.57232601664512 7.243771731978352 -1 0 0
1278 1 -0.08318744037824113 9.316479125224564 80.16970704965031 7.473160774663049 0 0 0
1275 1 -0.168828685431685 9.497234583725898 79.64264467041329 6.139429303707823 0 0 0
1131 2 0.1366504032315849 12.147564582477877 80.60375048834916 9.829757959953762 -1 0 0
1129 1 -0.1751292808156914 12.797358584332844 80.09950591452917 9.132186714124801 -1 0 0
1127 1 -0.1307362521160091 12.840223743304893 80.48603464691271 7.775770248138662 -1 0 0
1133 1 0.2684065046237435 13.508511532241776 78.90904047982141 9.607745860912214 -1 0 0
1124 1 -0.01637921377860295 13.64566282616067 79.7626392535782 6.810138628863603 -1 0 0
1273 2 0.1189491773465094 10.489833135500245 79.74244739415815 5.616061407665206 0 0 0
1121 1 0.004422458629188507 13.705384412092801 80.0157095809858 5.34380933219076 -1 0 0
1279 2 0.1300225355728399 10.1259704109155 80.65957047781276 7.94993062552787 0 0 0
1274 1 0.2649016341855475 8.442459984372658 78.8657781925591 5.467120502631981 0 0 0
1123 2 0.1563761304079891 12.225461528680817 78.3758655028749 5.190883383913235 -1 0 0
1117 2 0.1154044153160778 11.807364054830796 81.17541729144914 5.298048871855673 -1 0 0
1125 2 0.1018775167095163 12.296240832472144 81.3584293405961 7.390782191696674 -1 0 0
1115 1 -0.3189598904596516 12.840917013416988 81.3545910339466 5.022654488658718 -1 0 0
1118 1 -0.2993581258182711 13.087375842074273 78.74192966402005 4.601160621015885 -1 0 0
1122 2 0.1595213111161696 13.850540235667978 77.92693104135687 4.421671880621382 -1 0 0
1272 3 -0.5263415267763674 8.68193391480074 78.22866691916664 4.312402096302731 0 0 0
1270 2 0.1368836083518638 9.656001573568556 80.72260685974656 4.039511552880012 0 0 0
1529 1 -0.3124901015302248 7.270052847615733 88.41315572307388 9.786776259963068 0 0 0
1522 2 0.1493121868308386 7.195682511927966 87.28375515736802 9.724684720861468 0 0 0
1534 2 0.1285249146364039 7.54568428847758 86.92769169292404 7.635992044974415 0 0 0
1296 3 -0.478274077546856 7.0041962147889 84.84232478237882 10.295425915708114 0 0 0
1527 2 0.1655126421231705 8.263639389616511 86.51761809608534 5.296201354439278 0 0 0
1530 1 -0.1066483542837029 8.364552698931067 87.54251643640652 7.17539089611922 0 0 0
1526 1 -0.1280360632792618 8.658693655528431 87.35841521635743 5.8462139507800845 0 0 0
1398 2 0.1250700590598724 13.53351015458463 83.78521688312787 9.05051189043813 -1 0 0
1404 1 -0.1076746490466498 12.796798765490895 86.564384281668 9.999007428398059 -1 0 0
1383 1 0.2742562870838626 10.309852957732996 84.2179495738397 4.51752440055292 -1 0 0
1389 2 0.1532520115060416 8.414736908465997 83.34103165728929 5.45587345972622 -1 0 0
1386 2 0.1158882239376628 12.240803980664811 82.51751044127298 9.169478698104648 -1 0 0
1396 2 0.1498768056285401 9.217803235226913 83.37647623125294 7.705122628100433 -1 0 0
1388 1 -0.1435571099980883 9.488684695066937 83.68023681488191 5.60921343283229 -1 0 0
1392 1 -0.1182010120696092 9.87711275194724 83.813004239711 6.9665525632702066 -1 0 0
1395 2 0.1827088274792902 9.839873328131326 83.5226345824082 9.877521320987267 -1 0 0
1393 2 0.1635881941951917 9.387310209486984 85.00376637563474 9.24487362408599 -1 0 0
1387 1 -0.1261421814426659 12.158438993250428 84.57730907513843 6.229923184443061 -1 0 0
1391 1 -0.2986514880009705 10.264743592499531 84.55904856146307 9.701274559326354 -1 0 0
1401 2 0.1514738653304171 11.590139593128406 86.6365282948769 6.68428096414365 -1 0 0
1394 1 -0.3083740771140763 12.499919033493384 83.58658013987557 9.38700011870003 -1 0 0
1390 1 -0.01628731413099967 11.217326077216615 84.31214469170958 7.316861803679799 -1 0 0
1397 1 0.02200708705880075 11.532710781946879 84.67621972020008 8.76998379765515 -1 0 0
1400 1 -0.0141764472704355 12.151864603636515 86.03068278721172 8.8113712527271 -1 0 0
1403 1 -0.09971437229818064 12.127339919548998 86.901171227503 7.615149269676738 -1 0 0
1385 2 0.1119390332169138 13.230929211624826 84.96877562920963 6.387458009662325 -1 0 0
1382 1 -0.1661818254653193 11.676745565729064 84.61668114729585 4.919631686498838 -1 0 0
1119 2 0.1252474068088443 13.273532012758 82.20645693777352 5.586923633936547 -1 0 0
1521 1 0.2634452502628081 9.657397861918309 88.20849155453341 5.155298913288592 0 0 0
1524 2 0.13208337359006 9.770875744563313 87.06804166463405 10.131170891065796 0 0 0
1656 2 0.1190606829434505 12.561573786447 88.30291911326172 4.3391044169066895 0 0 1
1406 1 -0.1668454379642118 13.459883653865568 87.83127502998745 10.027783887987397 -1 0 0
1532 1 -0.3092759541617398 9.734165379754526 88.17301579223835 10.269782379538427 0 0 0
1405 1 -0.1418100684246714 12.864462675959011 88.069230074888 7.577489307736547 -1 0 0
1381 2 0.1345180356482839 12.379142091614359 84.95393447529132 4.131024676026795 -1 0 0
1409 1 0.2581839115504461 13.582293903384254 88.5292907752339 8.797996231870673 -1 0 0
446 1 0.2430205204971504 2.390315358874955 60.590949096488096 10.551180621764559 1 0 0
50 1 -0.09322821490338246 1.9282208095366555 55.73369582404847 12.444129517033419 0 0 0
594 1 0.396948095947214 6.676059427214822 60.8314951325979 10.81224129152482 0 0 0
298 2 0.1410745377682475 5.617336371451412 56.944137199226574 11.351307071122172 0 0 0
304 2 0.1580367357552597 3.5036501279813383 58.30631050295714 11.936762243217684 0 0 0
300 1 -0.07266787942979189 5.525766623895059 57.47085374939454 12.33692558850927 0 0 0
302 1 -0.1271016745069223 4.3450673915629485 58.17585271965269 12.62428778500893 0 0 0
296 1 0.01234699105808289 6.620502234759304 57.27784215986349 13.321639988301587 0 0 0
299 1 -0.1139902283493736 6.430587153659242 57.97555864997887 14.598793058406732 0 0 0
305 1 0.2612080712205397 4.189971420836149 58.81668222778566 13.903635704911588 0 0 0
301 1 -0.1578550606413955 5.222895612443589 58.685795406829655 14.889345361534446 0 0 0
306 3 -0.4881125277148766 3.0470645887551817 59.48298542592208 14.14117619161091 0 0 0
308 1 0.2534434129148131 3.1108575819685926 60.53236046352053 14.987281130251345 0 0 0
303 2 0.151473765212995 5.001159400912541 59.019550188432106 15.920069134036243 0 0 0
311 1 -0.1197350316564505 2.367970354926218 60.648160072479136 16.22703181941626 0 0 0
309 1 -0.1344577378339541 4.044796149507165 61.62978490649341 14.751219288046775 0 0 0
449 1 -0.1457213599423911 2.5502190890934235 61.67832811216693 11.503217030295419 1 0 0
297 2 0.1168141596690445 7.169201849337778 57.96167073533582 15.423212955482091 0 0 0
307 2 0.1756068558279279 4.63519247583369 61.62004057440098 13.800728295182944 0 0 0
597 2 0.1846430280372911 6.8769160513715955 60.20001615093764 13.594763575189662 0 0 0
599 1 -0.1197190794208308 7.170792234152766 61.19869519479921 13.890318348842419 0 0 0
452 1 -0.02415396538025569 1.5871286562659463 61.84572253630175 12.533784130167364 1 0 0
596 3 -0.4821912533629668 7.002557645623277 59.78758107044198 11.309558700162174 0 0 0
603 2 0.1176577864865522 7.780497135627309 60.50209195804929 15.911720857274926 0 0 0
602 1 -0.1114615069885738 7.677186423533637 61.35801235397282 15.235222338813783 0 0 0
53 1 -0.08412483691477679 1.751636145290706 55.586331589163784 13.869386569892983 0 0 0
447 1 -0.1426820847251778 1.4695652146682214 59.515708913580426 10.80232563576506 1 0 0
310 2 0.189048901483415 1.6627340725601112 59.86607461544847 16.46263854558528 0 0 0
286 1 -0.005727260157129831 7.922838866017553 55.88210939116773 11.614928070052613 0 0 0
293 1 0.009089071665447661 7.782067425746344 56.355792509549886 13.062583310046442 0 0 0
595 4 -0.4379388651306652 6.283162232220067 62.08019261706977 11.66412802363255 0 0 0
291 2 0.1739885396845426 7.573325501711055 55.5134942886413 15.131447705785499 0 0 0
175 2 0.1623214102137699 11.140674932849759 60.02451650266912 10.543613761118923 0 0 0
288 1 -0.08944926502522808 8.301453544798967 56.75544514310317 10.499156968442774 0 0 0
292 2 0.1649634851897796 8.54295826684261 57.81036063614725 10.651720341669627 0 0 0
56 2 0.2047399772506512 14.186459609463714 56.243524842650174 14.299675370189961 -1 0 0
51 2 0.1453731516942501 14.549988845254553 56.42425079365884 11.863348243351933 -1 0 0
182 3 -0.4939976911250021 11.808412360483011 57.08261266515635 10.76750998083044 0 0 0
450 1 -0.06709972947664128 13.806249068369386 59.6469833859994 11.911236499173626 0 0 0
453 1 -0.03550273832570633 13.747320922202743 60.84023178599428 12.758392766770374 0 0 0
451 2 0.1783488142044103 13.100177038315977 58.817813127486005 12.011600846053875 0 0 0
290 1 -0.2957722385628844 9.175704294190856 56.9839364748508 13.589101018002815 0 0 0
295 2 0.1658051921415194 9.484826963668954 57.86687756716442 12.992540727176014 0 0 0
282 2 0.1296965647242009 9.191558213955425 57.26352970347703 14.659542130623409 0 0 0
294 2 0.1677569752904194 9.974391464109555 56.16920726963292 13.46925652859679 0 0 0
456 1 0.4164804103429177 12.90104078492292 61.12710255498388 14.007220213614996 0 0 0
458 3 -0.4642795914866309 12.014557839733271 60.41627880747926 14.338893293527585 0 0 0
459 2 0.1774272700172229 11.266521323979461 61.883000950433285 16.258875808313405 0 0 0
843 2 0.1349708025960912 3.191179534805741 68.04861077319653 10.368235557051081 0 0 0
832 2 0.1492909015158373 3.652643660043479 66.67994910305238 11.46251504519591 0 0 0
830 1 -0.1211030457551499 7.742555464998918 68.01399098477688 10.766380708888745 0 0 0
833 2 0.1685836534378259 6.131053098666505 66.73021013933216 11.474875788765829 0 0 0
592 1 0.4061109513541022 6.141696139101453 63.211721360525374 10.628437240320011 0 0 0
593 3 -0.4921660087754781 5.956617951234718 64.37260220582141 10.846638803807181 0 0 0
835 1 -0.1039798229373021 6.448947023227185 67.81371865004871 11.345200009472249 0 0 0
312 1 -0.06109499847708309 4.324119324430637 62.67023002860098 15.670796430101412 0 0 0
313 2 0.1764210604906971 5.105483498735877 63.40035973725263 15.54110931774517 0 0 0
846 2 0.1563618454228271 4.781336139140226 66.98961160041223 13.562222404966462 0 0 0
839 1 -0.3103724045049215 3.2199411133658042 67.70375310908804 11.391014201687904 0 0 0
842 1 -0.2868091067739436 4.233995345593829 68.02665742145714 13.662954197722177 0 0 0
834 2 0.1680492640958311 3.1896942669765327 67.93064027224229 14.032094493341413 0 0 0
841 2 0.1577526361935001 2.177355017118293 67.6930789212722 11.836936449117761 0 0 0
600 2 0.2262218090435699 7.142903173423422 64.39825963751245 12.860122931492333 0 0 0
468 3 -0.4462178212551939 2.6641286031802345 66.39690970936911 16.20212548716154 1 0 0
448 2 0.178196782088873 3.335495279432811 62.394676981521684 11.350909940626808 1 0 0
455 3 -0.4702003154446655 2.079951588427285 63.883519364656216 13.63954771752302 1 0 0
454 1 0.3990144816308305 1.4393856281863049 62.91534043245821 13.664101062641139 1 0 0
598 1 0.1768319281178533 6.995917994312051 62.252574395411195 13.000745248592878 0 0 0
847 2 0.128104697577635 4.797190924402767 68.65816758749489 14.41913425403988 0 0 0
462 2 0.2401617670520252 1.4472999996842837 64.56166293898023 15.841754581175099 1 0 0
601 1 -0.131927452941044 7.363261542114525 63.541712319003366 13.550576186603518 0 0 0
845 1 0.001886856596871842 4.1297849182966875 68.69616271616448 12.229174062489195 0 0 0
829 2 0.197439297763881 8.400001699359834 67.17936358397084 10.408498466041378 0 0 0
604 1 0.1756250819771158 8.002206767602818 63.80044299983753 14.755413575183074 0 0 0
605 1 -0.1237129732726105 8.08693247561973 62.68270385499746 15.633689236724532 0 0 0
463 1 -0.1481861708632855 13.678381542088054 64.32159764275453 16.30513378990095 0 0 0
457 4 -0.4304913918868117 13.536905953578426 62.3636262357482 14.699003481196753 0 0 0
607 4 -0.4167226420141982 8.779177478371196 65.13266186929445 14.941286817808066 0 0 0
613 1 -0.04850239713295869 9.034250387652161 67.43964735679276 15.902439512702488 0 0 0
609 1 0.3930708786963511 8.930724986364908 66.19955001488769 13.813630075148568 0 0 0
606 3 -0.4331994227135472 8.983375800122342 65.9427189316644 12.65841276763382 0 0 0
611 1 0.4060873675774025 8.76780682153856 65.94535477089366 16.22360788229339 0 0 0
612 1 -0.05463419559377051 9.15622137995457 67.59444082791562 14.388216582188887 0 0 0
736 1 0.1729925682194297 12.618384049757413 67.60713575253209 11.751767364654278 0 0 0
735 2 0.2012022348951951 12.724601927790108 65.52972606492091 12.470005167789305 0 0 0
737 1 -0.0996974771645215 12.637581915386722 66.58544326626053 12.769067851397768 0 0 0
460 1 0.1937717277235314 13.019907219791406 63.09963864585306 15.86624597256334 0 0 0
740 1 -0.08177737293209994 12.772071797879981 66.93122266611672 14.130577349782776 0 0 0
741 2 0.1612379268116107 12.873365751054397 66.17143528714335 14.918747373991886 0 0 0
743 1 -0.124233974729157 12.804198945126736 68.33530668921696 14.546096115904053 0 0 0
746 2 0.1890700552699417 12.675718332853386 68.59320783947484 15.580534830418534 0 0 0
461 1 -0.1097337331491561 11.826955547149954 62.74454371724182 16.5739435288727 0 0 0
608 2 0.1509549721964074 8.522231584474419 62.76620154439434 16.61440674578136 0 0 0
838 1 -0.01960912741182036 5.543707307263989 68.85205224904107 11.699078497532074 0 0 0
837 2 0.1365467815483889 7.678365287945879 71.48303773530093 10.824104823658963 0 0 0
836 1 -0.1696468875319508 7.347584989025664 70.45519198479856 10.942827523880775 0 0 0
980 1 -0.2996118877832871 5.038083510483542 74.45790358772629 11.227697558327653 0 0 0
985 2 0.1458229356574813 4.002045405425209 74.34483997652502 11.615862186456111 0 0 0
984 2 0.1196783216157517 5.451044272319077 73.35160999352955 11.31419600775246 0 0 0
840 1 -0.1141550772714102 6.065481314326424 70.2297906395592 11.464571200306786 0 0 0
844 2 0.1240292911346013 5.405840699029842 71.07769815163884 11.71089396828831 0 0 0
848 1 -0.01119397666462054 3.378655239672451 70.00482710810769 12.338343971930676 0 0 0
850 2 0.1116813411178634 4.526478565269574 70.66814727017267 14.119826227469776 0 0 0
987 2 0.1234012357771247 7.7163861319778855 73.51832993892839 12.976173072559467 0 0 0
852 1 -0.1217392945237583 3.7433532743180766 70.92645815365927 13.411543950978237 0 0 0
989 1 -0.1174363644210585 6.954042671240849 73.84679078252877 13.731937427908596 0 0 0
991 1 -0.1436491575215464 7.062321507347255 73.30290917761823 15.0106495191354 0 0 0
993 2 0.1733907311539748 7.875691345039281 72.60049561817331 15.299520501127738 0 0 0
995 1 0.2481878341379757 6.122043416526982 73.7522265138274 16.03017996131834 0 0 0
856 2 0.1349075108670069 3.3761362065999974 72.69392104549891 14.43730443953977 0 0 0
854 1 -0.1679388811714488 2.9912355963796373 72.09267292968232 13.617482594796321 0 0 0
857 1 0.2665624635102458 1.884893076781991 72.5112983984501 12.750614529716358 0 0 0
851 1 -0.1037325587264405 2.3155481078157747 70.47918154042655 11.427135924650155 0 0 0
861 1 -0.1623338722025216 1.485967972975679 73.72322598648039 15.335134521545994 0 0 0
849 2 0.1678365505937426 2.0199881420049066 69.88441962969891 10.537529186373689 0 0 0
853 1 -0.1096622296107967 1.5833874964526602 71.6403534165249 11.653644406934728 0 0 0
986 1 -0.01998562117117458 5.983779168436 74.88482523176876 13.387651360715001 0 0 0
859 2 0.1621328974163098 1.4978817215843692 72.64572579645025 15.473448269902198 0 0 0
992 1 -0.1719246922679028 4.95810499812527 74.54002895837708 15.622877549329527 0 0 0
994 2 0.1552234896889126 4.134138063526262 74.70525061270952 16.30880973080082 0 0 0
476 2 0.1332860863395364 4.07818527247864 69.04449776627469 16.474680976339236 1 0 0
990 1 -0.115521040827612 4.899989882167928 75.14315214229205 14.357967988176432 0 0 0
864 1 -0.0920134075565044 1.6049147364944645 74.48580639482246 16.53299500189211 0 0 0
860 1 0.2429257782500856 14.542182944643773 74.31312121996402 14.036493605975162 -1 0 0
858 3 -0.4943443210688779 14.47577583888038 73.66976250557289 12.824284588327663 -1 0 0
831 1 0.2424384539078182 8.158360026143143 69.33944690946925 10.463035723911949 0 0 0
739 1 -0.1452391460228833 12.605457606834207 68.96642892886035 12.197941474322997 0 0 0
620 2 0.1675567449938717 9.723898217828737 70.97787904855652 14.359591783938773 0 0 0
855 2 0.1978837958312168 13.919988595552688 71.88003446476114 10.96120673267019 -1 0 0
614 2 0.1749693506121665 9.651704798726975 69.10014280650579 12.811005809888673 0 0 0
619 1 0.256693522502607 9.326001860028331 69.87341262275193 16.196423854636414 0 0 0
615 1 -0.07079238390842565 9.423474448045667 68.92673508045779 13.891296225224725 0 0 0
618 1 -0.1365660419714446 9.52050262475792 70.02479710077105 14.769893488611784 0 0 0
742 1 0.170612116400943 12.656394253308807 69.33478379074442 13.562234162566481 0 0 0