LAMMPS data file via write_data, version 19 Nov 2024, timestep = 8, units = real

20640 atoms
4 atom types

1.3868249283318805 14.613175071668124 xlo xhi
55.472997133286924 584.5270028666926 ylo yhi
3.9862549033768566 42.00374509662609 zlo zhi
0 0 0 xy xz yz

Masses

1 12.0107
2 1.00794
3 15.999
4 14.0067

Atoms # charge

591 1 -0.05301174188031518 6.717181684180392 61.22982911477288 9.341309082617693 0 0 0
585 1 -0.1177511825990426 7.184434525775006 61.28223014208215 6.909261702665987 0 0 0
412 1 -0.1123040025504075 6.289591377960571 56.278702761187525 7.215948735591879 0 0 1
410 2 0.1450345054373056 5.018439312429359 58.00898422811738 6.7090403904604905 0 0 1
409 1 -0.08822738671738366 5.777217776528679 57.30403954580613 6.335479761229626 0 0 1
583 2 0.1755500261504143 7.5391084934059 60.771503647863334 6.011892825605683 0 0 0
406 1 -0.03412290490003252 6.391712775034794 57.31040194077889 4.9300911654586494 0 0 1
405 1 -0.01379226014958221 7.3150810459078635 56.34439503594786 4.578086282147909 0 0 1
441 2 0.1762350543124785 3.7619306872298797 60.95223184282336 6.783580773870143 1 0 0
414 2 0.127284996001862 5.957905228337255 56.28288038513414 8.22732758647239 0 0 1
588 1 -0.08715672666310906 7.08586660613346 60.555204518331884 8.119303258554222 0 0 0
444 3 -0.506250138017747 2.8510363840247215 60.70373008970823 9.254886302212878 1 0 0
443 1 0.2663894178151818 2.742239684515029 61.81962236709168 8.534765911459658 1 0 0
439 1 -0.1231697943573435 3.2503975406816945 61.83430680627764 7.173240641792657 1 0 0
589 2 0.1319475699968439 7.33267263752984 59.49275642864973 8.158779342852009 0 0 0
445 2 0.1510393826158354 1.4847085742245338 58.60208169649056 10.21178291395487 1 0 0
285 2 0.1493169265137201 8.572262440670514 56.9550238159035 8.304062207174907 0 0 0
284 1 -0.1015495167052572 8.284146806951636 56.299006051679946 9.11665769524616 0 0 0
170 1 0.2373463869825898 10.54933822603276 60.667840245897345 7.190326831032826 0 0 0
174 1 -0.07991820418719503 11.003868412011943 59.83847674720559 9.486934687480122 0 0 0
177 1 -0.06981268493332143 11.112102316321483 58.51400771822808 8.949008904981802 0 0 0
180 1 0.4246867731693039 11.496665556025398 57.12133663663231 9.541342002587113 0 0 0
171 1 -0.135573976021917 10.697900546240295 60.90927528355618 8.607591018737217 0 0 0
176 1 -0.04712806321731591 10.883751484990771 58.26018238725613 7.475784649179116 0 0 0
178 1 0.4106670545717325 11.145564068570454 56.71760388931088 7.236516944380521 0 0 0
173 1 -0.1561789791472599 10.613233432502422 59.353034862130336 6.61146309003279 0 0 0
172 2 0.1684922804948816 10.46113050521842 59.2151401142798 5.531101026789746 0 0 0
179 3 -0.364300583459029 11.080256678813658 56.30019215405112 6.08954551697127 0 0 0
181 4 -0.3754863933941371 11.458569429162534 56.24250749108057 8.485979586965898 0 0 0
167 1 0.2371479637891277 10.551390095703905 61.658907108890304 5.114260396840273 0 0 0
168 3 -0.5162629130350909 10.218523873481 61.72607094436474 6.411524077572845 0 0 0
169 2 0.1791013064521994 10.57098817890154 61.9253169693776 8.997126037084435 0 0 0
166 2 0.1507385376535751 12.497854751672755 60.64077329118586 5.29427258286498 0 0 0
164 1 -0.1639426251604031 11.771857896639293 61.05892984121102 4.593202589498668 0 0 0
584 1 0.2636554281064545 6.810444599063219 62.676902751953136 6.768306491921926 0 0 0
435 2 0.1610984555158054 3.3283604538749882 62.8613365654431 5.262016370624366 1 0 0
437 1 -0.09255835394471663 3.0236899831572206 62.92171990632068 6.31431653432755 1 0 0
590 1 -0.03544512437095434 6.364691769950164 62.69551509255982 9.204738974891981 0 0 0
582 3 -0.5167409443028235 6.800317123144874 63.178317758514005 5.509762827656287 0 0 0
587 1 -0.1451950158131195 6.325089098501143 63.36357204767321 7.9332395104758175 0 0 0
586 2 0.1474870779605043 5.941535417914413 64.39336714206576 7.875015424896311 0 0 0
425 1 -0.3079430343078473 3.8461375938029767 65.8128413624246 5.5259366855180545 1 0 0
580 2 0.1418490978979129 7.860455631280382 65.189647222347 7.163027142753294 0 0 0
578 1 -0.1869241499084735 7.477218792623643 65.47824174076048 6.194144509530439 0 0 0
576 1 -0.1079342084848441 7.4641406380559445 66.84153637078764 5.842036263041299 0 0 0
581 1 0.2439880775880368 6.988417037501041 64.47852634504156 5.262307189019054 0 0 0
431 1 0.01559276762240037 2.386059989838865 65.43652940010536 6.006856802659201 1 0 0
418 2 0.1309858998142628 4.533019955928392 65.7963081927723 6.398100211690714 1 0 0
572 1 -0.02161747610116939 6.9378309733792785 67.34231317993844 4.582454892759721 0 0 0
574 2 0.1331728039663884 7.853737206476977 67.55590572563015 6.577972954961859 0 0 0
427 2 0.1421097271448036 4.200435977141947 65.13941623553528 4.708535472973822 1 0 0
434 1 -0.01484917120130993 2.423498405429214 64.15479944000319 6.815223003594781 1 0 0
429 2 0.1029670931226991 3.945382559584342 66.85234494462759 5.144113266798449 1 0 0
440 1 -0.1452395971080466 2.0271905112589588 62.99909625641435 9.005571574927188 1 0 0
433 2 0.1218708472686268 2.7475991178666654 66.70648125928034 7.8024646009504295 1 0 0
420 2 0.1188430870850801 2.219988300836416 67.61847279271983 6.390409739632799 1 0 0
428 1 -0.3184573473201426 2.06952247867237 66.67766575383037 6.945254618064528 1 0 0
438 1 -0.101772832290088 1.9327700223246116 64.14097559256294 8.1837999817483 1 0 0
442 2 0.1658501207471936 1.668483440877281 63.04490778897399 10.04369140005727 1 0 0
436 2 0.1363919278825296 1.526533080673979 65.05668256131597 8.616265693969401 1 0 0
424 1 -0.005238975303219456 1.4097039622300789 65.44265038122015 4.887604094899662 1 0 0
432 2 0.1413897214352397 14.245041591786915 66.67087665226867 7.291791233105876 0 0 0
732 1 0.3938094028271036 11.94073040294337 65.97025016153808 9.725660228893195 0 0 0
730 1 0.388533066423596 12.773009621986287 68.28790096195888 9.148063853645139 0 0 0
729 1 -0.05061642985423259 11.42822075333386 66.34800038685482 8.339825614181592 0 0 0
728 1 -0.05922676568473474 12.01803195412737 67.68619268233144 7.972136167312427 0 0 0
727 2 0.1576953926449619 10.100525646947563 64.71517994928567 7.730289745297041 0 0 0
726 1 -0.08343296097127115 10.540602919897456 65.66046830444937 7.420359659025429 0 0 0
725 1 -0.1552535147950016 11.674054947942007 68.22471601264574 6.704356432711152 0 0 0
430 2 0.1438207722759469 13.10021782317363 64.32943975486796 6.036536994901821 0 0 0
723 1 -0.1428214319291014 10.312064916459033 66.20306557301382 6.137807391447131 0 0 0
722 1 0.2544925867940906 10.87655915395144 67.48869512068313 5.7539079378141835 0 0 0
718 2 0.1434704583154778 13.182421996840734 67.90155729462433 5.100709419509829 0 0 0
721 2 0.1585277515720923 9.674888670669525 65.66902638252705 5.4036590168970955 0 0 0
426 1 -0.1017563507460802 13.360147650004652 64.78439323160036 5.065789093868306 0 0 0
165 2 0.19612432903602 8.685791349511941 62.782172879543054 4.660521850578386 0 0 0
734 3 -0.4447016100587249 11.900288320678875 64.86673267028192 10.161511190130378 0 0 0
720 3 -0.5192999740705747 10.588751609592098 68.0966127426206 4.582468507787162 0 0 0
716 1 -0.159102355651542 12.921017235798988 68.64193384018908 4.340710527998103 0 0 0
733 4 -0.4427724903532193 12.706502665201771 67.22767374861526 10.2977892080357 0 0 0
163 1 -0.144390860149376 9.590355263136395 62.31737187647307 4.243759801745146 0 0 0
423 2 0.1594354910975645 11.507510889464921 64.23177202597978 4.15861535639192 0 0 0
569 1 0.01938328934701896 6.8723921843125915 68.82063334467513 4.281005386982249 0 0 0
566 1 -0.3144003519484705 5.343569679375318 69.28330370718291 4.424905461215439 0 0 0
567 2 0.1397399421886005 7.375799989296861 69.58485758850551 6.319127586884597 0 0 0
571 2 0.1131615861846181 4.835148593376482 68.91866527160958 5.3613812001346615 0 0 0
563 1 -0.2999961657671837 7.684807523941157 69.73247898651633 5.265399549883219 0 0 0
959 2 0.1559135135837373 7.1035155706874935 71.0175353465019 8.847182491884015 0 0 1
950 3 -0.4718511993345924 5.908387396755165 72.8348624403762 6.8511049871524 0 0 1
982 2 0.1388399417581758 7.129144207516686 74.21113442171745 9.579425294942553 0 0 0
953 1 0.3663149237620104 7.052066688767412 72.82077821813547 6.543508492999593 0 0 1
952 4 -0.4558647371121887 7.825115547721564 73.42974958396232 5.229785664723349 0 0 1
972 2 0.1536579186275142 4.87118773979572 74.74563741762815 10.15453145353128 0 0 0
956 2 0.1903100948229488 5.273546385479579 73.93776252374775 5.021299776181734 0 0 1
1088 3 -0.4492397043350866 1.7437048300005107 74.33607680934342 6.262886682406615 1 0 1
565 2 0.1574248084843251 7.63254533633729 70.80755012025702 4.991937654680691 0 0 0
978 1 -0.1139215798828463 7.820172026507617 74.84023259744183 10.15650226535413 0 0 0
951 1 -0.1274144831485369 5.76569726314152 74.0207948351959 4.049839575012982 0 0 1
558 2 0.1320141002042924 5.236283293804425 70.40631711332595 4.437284779730958 0 0 0
960 1 -0.1687779057365162 8.084175714619661 71.25636433666921 8.451803724194113 0 0 1
957 1 -0.06244534981970447 8.173154054566876 72.14515614498505 7.349768514258374 0 0 1
974 1 -0.1572468501827436 9.129884779015498 75.0186214699634 9.665291653775064 0 0 0
975 2 0.157810511173865 9.505411070392938 74.53577176985101 8.747576672786352 0 0 0
724 2 0.1563507586897082 11.954228309628768 69.2505440459648 6.454118845833931 0 0 0
731 3 -0.5030775833457204 13.38479861861267 69.31638780092533 9.117873815870722 0 0 0
556 2 0.1796986739888888 8.771205945372746 69.47136854854062 5.186998948764789 0 0 0
965 3 -0.4880708075317628 9.264983753510464 69.53204064556616 9.713547206534594 0 0 1
963 1 0.2594507514035311 9.29333434226617 70.62495772458604 8.93501235839857 0 0 1
958 1 -0.05730685616543819 9.516804205939927 72.32777881848273 6.6598139234963405 0 0 1
955 1 0.3892447146388363 9.321076447282802 73.09357634017712 5.361784031998088 0 0 1
966 2 0.2066864110930499 11.493598975621492 70.5856808665571 8.773103197609924 0 0 1
964 1 -0.1232807978624254 10.580757822381546 70.9472719815087 8.320841957590273 0 0 1
961 1 -0.08759788238715228 10.732950219168021 71.68417491548772 7.131083708597846 0 0 1
962 2 0.1622627563541376 11.69864659562107 71.80868449923568 6.608054654499351 0 0 1
1097 2 0.1829484035144383 13.446456590129461 75.15810290713226 8.760084170654258 0 0 1
1091 1 0.3893303415565489 14.0576431530665 74.9409637500965 5.793641713697615 0 0 1
954 3 -0.4376903696474447 10.222363917347021 73.29083401932408 4.600389628879978 0 0 1
719 1 0.2484399623844604 11.522689779032099 68.92294662789499 4.082698076608165 0 0 0
1090 4 -0.4588428766794314 13.819775588736228 75.28854234519487 4.30288741669807 0 0 1
1094 2 0.1658179135556037 3.3618049419173768 75.76069614729474 4.856667589911739 1 0 1
1116 1 -0.1022607700819508 3.031681988055597 80.57065650225917 5.8240634402962845 0 0 0
1285 4 -0.4182366612529761 5.953238696294403 80.2286538804984 9.502234506354858 0 0 0
1282 1 0.3819331037193495 5.745808484777377 79.18575051179161 8.370156241026434 0 0 0
1283 3 -0.4724338038018863 4.782641718696841 78.49024442415732 8.271312690223729 0 0 0
1287 2 0.1759164148239098 3.114257483421264 79.73747081705153 9.598736530789097 0 0 0
1280 1 -0.05648796639859773 6.976147108649204 79.21130585677656 7.440715081389797 0 0 0
1112 1 -0.1312864647299981 4.337390166557968 80.68646925364865 5.316401418342815 0 0 0
1289 1 -0.1260791938515708 3.4344467948457953 80.75977839798823 9.857146788120769 0 0 0
1288 1 0.1852286953685678 4.8241252952018545 81.05095021121353 10.032004210517256 0 0 0
1276 2 0.1694312934277746 6.445761280881075 77.93124080342562 5.7510309380146385 0 0 0
1277 1 -0.1222363850661994 7.222237134949591 78.59148861734164 6.183737757874855 0 0 0
1284 1 0.3964292496444596 7.412994769164957 80.80776902576618 9.287705356786589 0 0 0
1120 2 0.1449153371988824 2.86014339895924 80.66995265325812 6.902008875687263 0 0 0
1113 2 0.1655078105582442 5.164086781883876 80.87674271071852 6.021427465598434 0 0 0
1114 1 -0.01438806655531525 1.9181793391522275 80.28222425694821 4.942140826694065 0 0 0
1292 1 -0.1084499073627788 2.4418691097100487 81.7606388131249 10.032801979510598 0 0 0
1126 2 0.1488171936678795 1.6858822457846807 77.94206097629942 6.545656232864732 0 0 0
1132 2 0.1702819638674831 1.5109221725895892 77.22299407720827 8.90994022922012 0 0 0
1281 1 -0.05188832462751077 8.003443277517952 80.0971739879639 8.064127061538196 0 0 0
1286 3 -0.4359555207934984 7.918377847048716 81.72945224160938 9.843424203518055 0 0 0
1293 2 0.1245523343431138 1.3892392588146112 81.51426085146879 9.851075267869819 0 0 0
1098 1 -0.1142968470291267 12.629812266754673 75.41178728457429 8.056974718678196 0 0 1
1101 1 0.2474702220999387 11.33160356083349 75.82982676728956 8.50285933168074 0 0 1
1103 3 -0.4797359162089574 11.19357395032107 76.17011855404924 9.809562191271345 0 0 1
1099 1 -0.06306333726500325 10.43924172884607 76.08670593804138 6.148598046331851 0 0 1
1104 2 0.1591023151479702 9.299034036874932 76.45545794745631 7.937961103879124 0 0 1
1102 1 -0.1610537254010851 10.27163861821398 76.14063569157182 7.5516939180556415 0 0 1
1100 2 0.1960329190138054 9.626656902152199 76.3419849816552 5.451063350627205 0 0 1
1096 1 -0.03709922536893806 11.737240271136223 75.71021852630894 5.643445253843784 0 0 1
1095 1 -0.05140888890334436 12.839615679385613 75.35963391842516 6.644836961813098 0 0 1
1093 1 0.4055900346144639 12.301135407264166 75.66288597206906 4.226518476074374 0 0 1
1130 1 -0.131799625894792 14.248895961445879 78.13484130977398 8.604100348435493 -1 0 0
1128 1 -0.1005271196004761 14.346628810332021 78.53362114800547 7.264017847844465 -1 0 0
1278 1 -0.07966130112842124 9.305089132068225 80.16998738005049 7.438047680275259 0 0 0
1275 1 -0.1737205258521793 9.49427042855449 79.62290818991774 6.141255340122693 0 0 0
1131 2 0.1359822924840557 12.150400248350202 80.6198057518099 9.82506109066849 -1 0 0
1129 1 -0.1715489717160605 12.784890394739083 80.07678161713906 9.115096320038198 -1 0 0
1127 1 -0.1322856641338805 12.85680785373696 80.48873799036902 7.769982271772033 -1 0 0
1133 1 0.2699230311351409 13.508446532800445 78.91211320985697 9.594510657151549 -1 0 0
1124 1 -0.01578356103201054 13.643712562229247 79.72825401182428 6.820936029117076 -1 0 0
1273 2 0.1220355540541497 10.451741921628315 79.73763803047356 5.649751301172735 0 0 0
1121 1 0.009252083397800537 13.726360709591066 80.0458785862917 5.373102769310883 -1 0 0
1279 2 0.127775512004881 10.129838967149688 80.67875477208877 7.952191590504603 0 0 0
1274 1 0.2556390778123584 8.454336636991734 78.8591143750638 5.487540497949211 0 0 0
1123 2 0.1538002634469526 12.229905854787813 78.36137529190718 5.178623969102894 -1 0 0
1117 2 0.1128753312067783 11.796084398977104 81.19043145238082 5.301415301698109 -1 0 0
1125 2 0.1012077835142652 12.28941874720606 81.35366094203195 7.416853987504478 -1 0 0
1115 1 -0.3153441440715599 12.86046742556577 81.33445978828472 5.020569874903481 -1 0 0
1118 1 -0.2987455012893614 13.095270942049414 78.77937659735798 4.602839412053319 -1 0 0
1122 2 0.1572166233667372 13.83374154223089 77.95154320606164 4.43598708660474 -1 0 0
1272 3 -0.5183984361680571 8.654207707880879 78.20709993436532 4.312096724589667 0 0 0
1270 2 0.1333657278833404 9.636522007194369 80.76439588678974 4.06273003782377 0 0 0
1529 1 -0.3138528874213772 7.269061628032977 88.41327256950453 9.75942780710975 0 0 0
1522 2 0.1506421673618028 7.197068475299679 87.30696253601596 9.72789900232443 0 0 0
1534 2 0.1315071850524741 7.573180361606865 86.92826530431161 7.64572898627572 0 0 0
1296 3 -0.4689204351583911 7.001405085999454 84.84317091257164 10.281288787495058 0 0 0
1527 2 0.1643097672211696 8.236400835800112 86.51103511077582 5.283650482494588 0 0 0
1530 1 -0.1105939872915522 8.33279611597333 87.5636895593188 7.184673720042381 0 0 0
1526 1 -0.1308124935834505 8.68976308502294 87.33221550443366 5.831302759104672 0 0 0
1398 2 0.1249655410569355 13.54345106752693 83.77400099279389 9.054087972481385 -1 0 0
1404 1 -0.108551498615155 12.785335775136545 86.5781031934272 10.009708849353348 -1 0 0
1383 1 0.270357993709726 10.312837676488087 84.22826473465851 4.540921602519488 -1 0 0
1389 2 0.1553802042342534 8.459720685373632 83.33777844056239 5.438935748551539 -1 0 0
1386 2 0.1163970871924967 12.231422064693824 82.54426983783199 9.153995077702714 -1 0 0
1396 2 0.149601052534883 9.213360127338674 83.40606272048389 7.71054501964387 -1 0 0
1388 1 -0.1464513862358106 9.461779982458946 83.71053614565702 5.623258934858623 -1 0 0
1392 1 -0.1166749905962436 9.90514878981886 83.76323801497357 6.936125330362622 -1 0 0
1395 2 0.1848076464507971 9.874708641924737 83.5171908489732 9.87187813924176 -1 0 0
1393 2 0.163572139475517 9.366646693828502 85.03704699542489 9.228660979182006 -1 0 0
1387 1 -0.1300219122251598 12.146090463602253 84.61428120812205 6.213611779197908 -1 0 0
1391 1 -0.2990055387904633 10.231907013436317 84.55447283254824 9.706545916945446 -1 0 0
1401 2 0.1520095268784522 11.591316266574367 86.62179041506357 6.708864308246901 -1 0 0
1394 1 -0.3141071220375793 12.510284342397043 83.58898449592373 9.40730198705515 -1 0 0
1390 1 -0.01998077492946766 11.219690620526176 84.30857758309705 7.323587063103706 -1 0 0
1397 1 0.01615541456229319 11.529135428569965 84.65402664521426 8.769689046018339 -1 0 0
1400 1 -0.01412548802478342 12.14362816842737 86.03917985069758 8.805363003422702 -1 0 0
1403 1 -0.101521994398478 12.138801104965069 86.89849633631142 7.619973683793034 -1 0 0
1385 2 0.1154763051873511 13.179885143766612 84.93978855163147 6.4022179856762556 -1 0 0
1382 1 -0.1684022800436584 11.68245516435913 84.60265986476388 4.900156778574245 -1 0 0
1119 2 0.1231646010746032 13.262025850181917 82.2079107615219 5.579557871430719 -1 0 0
1521 1 0.2670349324224018 9.65166310346767 88.17779433804456 5.144079473484555 0 0 0
1524 2 0.132402165748027 9.77846808699098 87.08351771595763 10.102561062061884 0 0 0
1656 2 0.1210678184435598 12.53399388122412 88.28959913468638 4.328242885107807 0 0 1
1406 1 -0.1612051553445746 13.46053677858194 87.80128588376937 10.023392703791941 -1 0 0
1532 1 -0.3139539061855688 9.744079305196006 88.18153497436782 10.282394937230716 0 0 0
1405 1 -0.1472232524292082 12.872090435563102 88.09170700847778 7.583093506221804 -1 0 0
1381 2 0.1366984850235615 12.36939274091283 84.94828751342732 4.136074040782666 -1 0 0
789 3 -0.4902653776940775 13.018181848461705 83.38948583660637 22.138083547612244 0 0 0
446 1 0.2549815826281865 2.3905244894221385 60.609467187140226 10.534704011020608 1 0 0
50 1 -0.1099903014819184 1.935788446215625 55.72919305926371 12.436153551473183 0 0 0
594 1 0.4079242972497705 6.668826905015629 60.836819961419714 10.818075274898188 0 0 0
298 2 0.1370075050535949 5.621025588861387 56.96050682287714 11.37643935295762 0 0 0
304 2 0.15760769530423 3.532214275923495 58.28547422902861 11.914384570145135 0 0 0
300 1 -0.07794272915289217 5.538307855322286 57.427943903387245 12.346556704127549 0 0 0
302 1 -0.1255441581987177 4.364144388120912 58.181144470180506 12.635612997184133 0 0 0
296 1 0.01592095203580985 6.585076748403822 57.284928200067625 13.333144433968327 0 0 0
299 1 -0.1211840323899487 6.423163798513829 57.97442401782843 14.598762209845454 0 0 0
305 1 0.2653248976636448 4.172108758643503 58.8269308396804 13.913763758524647 0 0 0
301 1 -0.1555920549591101 5.222142938606533 58.65602870571881 14.894850524784731 0 0 0
306 3 -0.4840196224357244 3.0468786118895363 59.48312028978817 14.154190503740447 0 0 0
308 1 0.2485133228442706 3.1338217330078484 60.56021054511594 15.008098433262722 0 0 0
303 2 0.1512385814832955 5.033860032544965 59.03868417945708 15.90401731246243 0 0 0
311 1 -0.1161133253529858 2.3493806522130045 60.62627720150855 16.19977495366645 0 0 0
309 1 -0.1399786548102082 4.066921449801702 61.62581450383032 14.737639092799037 0 0 0
449 1 -0.1463916425638195 2.5361552383175794 61.670918043904486 11.478320370131154 1 0 0
297 2 0.1156371876001533 7.16409798973742 57.936647574979695 15.390974839198487 0 0 0
307 2 0.1765348793209282 4.626004546587945 61.61571719749204 13.814096437446645 0 0 0
597 2 0.1854197988274457 6.879413300049583 60.18318607477574 13.59308729022074 0 0 0
599 1 -0.117799358948366 7.175703373464095 61.188658389825115 13.909840508427171 0 0 0
452 1 -0.02806725425178047 1.5898751568308405 61.85247962755724 12.551183944754722 1 0 0
596 3 -0.4814240538256408 7.005460329486805 59.77957064088054 11.274063021104979 0 0 0
603 2 0.1192521375286692 7.780484856184571 60.51434231722692 15.907837836820606 0 0 0
602 1 -0.1073806722681628 7.681128150667601 61.37186330525929 15.224724487851608 0 0 0
53 1 -0.07944143475783177 1.728927531807309 55.60998084799952 13.863661535954671 0 0 0
447 1 -0.1455519629850264 1.4851910130311972 59.51174708868325 10.8286145529599 1 0 0
310 2 0.1880292727006939 1.6385015622668293 59.83903401798612 16.451371076795944 0 0 0
286 1 -0.007118933411690107 7.925403935640022 55.95917317456016 11.659050704448031 0 0 0
293 1 -0.03229094284598338 7.772021931726816 56.44070862356948 12.993357539963045 0 0 0
595 4 -0.443762556514611 6.307558371945126 62.0724258099541 11.65766316895948 0 0 0
291 2 0.08414890226265562 7.5714182456542725 55.50665330017761 15.136645721333831 0 0 0
175 2 0.1600977776858921 11.142831674580371 60.03310215206411 10.56064068910256 0 0 0
288 1 -0.09486318962388118 8.28133180598528 56.732645364967254 10.550350895136635 0 0 0
292 2 0.1661858238389955 8.544857876735888 57.8010750646679 10.66848312768041 0 0 0
56 2 0.1851396055585563 14.195683530564828 56.22533672648165 14.336204553890019 -1 0 0
51 2 0.1518794975254579 14.555478891999993 56.42321965141043 11.834372359770452 -1 0 0
182 3 -0.4689027564219959 11.794417900584957 57.06836945190556 10.719600965930104 0 0 0
450 1 -0.07023886951287799 13.788196042780676 59.64000934886424 11.876550672277933 0 0 0
453 1 -0.03500954016821117 13.743846345233067 60.79170755151305 12.75059099946424 0 0 0
451 2 0.1740836636962683 13.098382319781514 58.823427545170546 12.040090919312147 0 0 0
290 1 -0.2948117009299679 9.188364181245085 56.945964796784594 13.582128441468958 0 0 0
295 2 0.1665136289266242 9.485193080976195 57.85174615403354 13.003663605687427 0 0 0
282 2 0.1262986649416938 9.167773392849059 57.25821496692819 14.648297683471773 0 0 0
294 2 0.1632700901120922 9.966988424426113 56.192360863352484 13.466005541881408 0 0 0
456 1 0.4137528004691731 12.913161659065654 61.10882281631378 13.995641486008905 0 0 0
458 3 -0.4671339346070827 12.012937030411944 60.43338943759101 14.35075963734791 0 0 0
459 2 0.1773018934970691 11.267898481192645 61.86597797338314 16.26929276026177 0 0 0
843 2 0.1307464082321083 3.1823015284228573 68.03592857443495 10.346625993583991 0 0 0
832 2 0.1488098227845137 3.6417025984103475 66.67655236334409 11.450173369483645 0 0 0
830 1 -0.1200708959282246 7.722198059061401 68.0037125753447 10.749825657199745 0 0 0
833 2 0.1720337895339158 6.136976290397027 66.75361563839378 11.47946438532699 0 0 0
592 1 0.4038813952895298 6.138156693860807 63.221844120361396 10.622339219352424 0 0 0
593 3 -0.4896434511111278 5.945727367384822 64.3829551853155 10.848023709329286 0 0 0
835 1 -0.1073666945979072 6.462300853168487 67.77661603186074 11.332387579046763 0 0 0
312 1 -0.05921583972339738 4.320799421089776 62.66299055417929 15.677971660646671 0 0 0
313 2 0.1735683242891877 5.113600706148109 63.4064399612263 15.509616652521988 0 0 0
846 2 0.1607112609757198 4.749564774904093 67.02993801413601 13.584556563781398 0 0 0
839 1 -0.3062818794296869 3.2388376990156056 67.71445130298179 11.418565488186394 0 0 0
842 1 -0.2947100287024155 4.2409533436566065 68.01486812754148 13.658092814267805 0 0 0
834 2 0.1692720880851807 3.2052014348650477 67.90757662670748 14.05125804943649 0 0 0
841 2 0.1572866713564445 2.1939988618028146 67.68432717510137 11.819386245203924 0 0 0
600 2 0.2277548231944602 7.157917629902512 64.39351460177248 12.872405716273649 0 0 0
468 3 -0.450847366017296 2.6588505008484837 66.40454782059962 16.19705803232973 1 0 0
448 2 0.1774215506114051 3.3431113795006153 62.402225725001124 11.352173224559987 1 0 0
455 3 -0.4663398979334741 2.0683313298031187 63.89245604939635 13.652817651249396 1 0 0
454 1 0.399003068707066 1.444017737276576 62.90007484143567 13.662155569162215 1 0 0
598 1 0.177387580673887 6.9534656902882315 62.2758193782629 13.004576124239676 0 0 0
847 2 0.1297009047189243 4.793479960653339 68.63799536042083 14.394090598894818 0 0 0
462 2 0.2413493031738352 1.4197490617604696 64.55191778024265 15.84856719368716 1 0 0
601 1 -0.1356127427614504 7.354780678536955 63.54344147654935 13.519646325181315 0 0 0
845 1 0.006238499485109102 4.128658666190175 68.71510631670924 12.236097873799967 0 0 0
829 2 0.1995445729971106 8.37491320621003 67.18146410259514 10.432044171306645 0 0 0
604 1 0.1783803664672985 8.021312662190011 63.80484974528777 14.756365059756469 0 0 0
605 1 -0.1249970423299529 8.092525472352037 62.685921086781434 15.622882244319639 0 0 0
463 1 -0.1492912608779927 13.68860554537304 64.30868844156299 16.309574275410085 0 0 0
457 4 -0.4233434444090892 13.546240385877741 62.375667645753175 14.667076170107597 0 0 0
607 4 -0.4143501358112132 8.757700054578624 65.12394093370041 14.93888021922875 0 0 0
613 1 -0.04862708341590009 9.023368412818872 67.4450264518448 15.896682754873936 0 0 0
609 1 0.3918487567736847 8.951026441327349 66.19815499284822 13.804096424711073 0 0 0
606 3 -0.4340824572214437 8.982570560251848 65.95427532874973 12.644951676221444 0 0 0
611 1 0.4024112201633033 8.779971170045249 65.94966641389834 16.250586220252945 0 0 0
612 1 -0.05346812637146156 9.149502955092348 67.58899981469673 14.39672425595064 0 0 0
736 1 0.1772427438476612 12.627276661504286 67.59154195837955 11.747586687741823 0 0 0
735 2 0.2028753088024447 12.70622840109689 65.53608403629349 12.478625179091669 0 0 0
737 1 -0.1047069155434986 12.680198255635261 66.58934982301828 12.77222042623138 0 0 0
460 1 0.1880185071962782 13.030974566698532 63.11611510614353 15.864514040078364 0 0 0
740 1 -0.08033602278759934 12.782231280619158 66.94973251237224 14.14566447101313 0 0 0
741 2 0.1620445904459087 12.860038057952455 66.17202527433597 14.903965770991322 0 0 0
743 1 -0.1215053447566335 12.749966435574315 68.31846098252375 14.530820500953329 0 0 0
746 2 0.1866393045662232 12.713225692239952 68.58320247097798 15.592625647735664 0 0 0
461 1 -0.1050622326838498 11.82599738243595 62.78155558879201 16.55106644955633 0 0 0
608 2 0.1508488577972125 8.522662204714475 62.781408314678 16.62370432350192 0 0 0
838 1 -0.01875380455158255 5.555229096797466 68.86799600876624 11.673529698931976 0 0 0
837 2 0.1360074771878713 7.684006352010708 71.4854091014375 10.824382195651758 0 0 0
836 1 -0.172660487061406 7.335794957434515 70.45529142376857 10.938684139017068 0 0 0
980 1 -0.3096968022218958 5.044635743199668 74.41383209139771 11.192959826349535 0 0 0
985 2 0.1475370931516093 4.016844853063237 74.36646683149075 11.636599392634954 0 0 0
984 2 0.1272463557896426 5.432105662113912 73.39452120015363 11.286237574777509 0 0 0
840 1 -0.1138699792011765 6.049789273819166 70.21828989187019 11.471508521917475 0 0 0
844 2 0.1247989069163386 5.422355672175292 71.07364424551439 11.714224898396758 0 0 0
848 1 -0.01184903101800322 3.3778795574127756 70.0116775354528 12.318158656369803 0 0 0
850 2 0.1107776237147231 4.535296344890528 70.67093125901258 14.112455736896688 0 0 0
987 2 0.1256810644133632 7.69882051573007 73.53145572051231 12.982778504980931 0 0 0
852 1 -0.1190652544931604 3.7182078829973313 70.90996901361548 13.421710229676313 0 0 0
989 1 -0.1233581620051149 6.9803765146734715 73.8564014172918 13.723806563480974 0 0 0
991 1 -0.1435230637441912 7.061048944606743 73.30514046043687 15.02490167011145 0 0 0
993 2 0.1738339003469049 7.862271648295751 72.60985709479587 15.28742096843191 0 0 0
995 1 0.2493391425244268 6.108185238772588 73.75293920034476 16.020285582423764 0 0 0
856 2 0.1345390223710886 3.357400074615226 72.71738474377914 14.44531387149024 0 0 0
854 1 -0.169877067689432 3.0112813658526214 72.1041059121772 13.608830241339998 0 0 0
857 1 0.2656250353529969 1.8975866869328506 72.50094923444881 12.759403544169217 0 0 0
851 1 -0.1051885527003295 2.3118654837508648 70.46360136238717 11.424643040058744 0 0 0
861 1 -0.164217728508029 1.4827060200083988 73.72281505847309 15.34806699951663 0 0 0
849 2 0.1685954073538356 2.0341730553236896 69.87646925021717 10.557954355968421 0 0 0
853 1 -0.1118031388555592 1.5633264778129037 71.63235098855695 11.637425685384269 0 0 0
986 1 -0.01807113866976289 5.977718577307933 74.86989338195123 13.385550115361237 0 0 0
859 2 0.1609060846723442 1.4972357762985116 72.63719100556007 15.462825155483227 0 0 0
992 1 -0.1713612264907682 4.956344193988586 74.54127079095834 15.608900495968802 0 0 0
994 2 0.1553696374728436 4.140552738607258 74.71470706289472 16.31964615185891 0 0 0
476 2 0.1342789432181599 4.076722427560934 69.06049038044087 16.49246078687218 1 0 0
990 1 -0.1167133700115006 4.9208313925832785 75.15088766976882 14.346787126814819 0 0 0
864 1 -0.08815591931025046 1.569920255315363 74.49566263041477 16.535723459489517 0 0 0
860 1 0.2487560935382107 14.543447059299716 74.3152290375286 14.039106633781502 -1 0 0
858 3 -0.4952646116738264 14.481300979215408 73.66005863452418 12.84956704697148 -1 0 0
831 1 0.2435456728278531 8.169646648365912 69.36330226665018 10.477362561695392 0 0 0
739 1 -0.1444841814650835 12.602359359998577 68.9610536271616 12.201123730146291 0 0 0
620 2 0.1643570899136655 9.723514189706872 70.99991579491419 14.353142898375074 0 0 0
855 2 0.2007005839524915 13.956529184878026 71.88077507235958 10.974150779114584 -1 0 0
614 2 0.1751060791598924 9.629862351528697 69.0846370643502 12.818602823775407 0 0 0
619 1 0.2570397364565842 9.344965700558893 69.88108448809116 16.21371439245809 0 0 0
615 1 -0.072240929952927 9.445890317735419 68.90873326251328 13.877623781506802 0 0 0
618 1 -0.1331053323041054 9.501237309538116 70.00121146356648 14.772953116942727 0 0 0
742 1 0.1813777660152987 12.627691905686323 69.3829583770473 13.57122737631919 0 0 0