LAMMPS data file via write_data, version 2 Aug 2023, timestep = 5000, units = real

138 atoms
4 atom types

1.3994703068322067 9.821151693167312 xlo xhi
2.0199929720137373 14.175833027986158 ylo yhi
5.630764960893817 39.51537703910655 zlo zhi
0 0 0 xy xz yz

Masses

1 12.0107
2 1.00794
3 15.999
4 14

Atoms # charge

3 1 0.2180639562265764 3.7804328019904676 4.763720242812381 6.557907406433282 0 0 0
12 1 -0.1198224249668819 2.182548951392896 6.661017494353755 6.6820722519671545 0 0 0
8 1 -0.1577332732403325 2.9305457231855856 5.731216048353426 5.951272811124904 0 0 0
5 2 0.1323791272591359 2.891508376598405 5.627407490096603 9.771065225354592 0 0 0
10 1 0.001530060939203904 2.205081139220825 6.643089651810034 8.10502286329236 0 0 0
17 1 0.02059114119326757 1.463559629669247 7.621475694963166 8.96468084712383 0 0 0
7 1 -0.1191872653646185 3.008596933790468 5.66980991997732 8.720143386988292 0 0 0
6 2 0.1507781270497221 8.27620127647733 6.440011405828161 9.754398918906677 -1 0 0
14 1 -0.3384122012297235 9.15368272567817 6.983149028977172 10.113705106088728 -1 0 0
18 2 0.12094984202596 9.77934246650516 6.29772027390107 10.733403802289534 -1 0 0
16 2 0.1291731987063941 1.579594676717717 7.348969340504744 6.128950300350609 0 0 0
2 1 -0.1300450562403354 3.8147047804439103 4.722570091340688 7.9673294966167045 0 0 0
1 2 0.16498424944375 4.362884475843268 3.985841080831555 8.529510053505032 0 0 0
19 2 0.1481375006612366 8.733583507514798 7.685370172190997 10.826383637683172 -1 0 0
21 2 0.1269073843035927 2.6309230772261563 7.808357436107329 11.557614589858273 0 0 0
137 3 -0.445930544814412 4.712032663054581 3.891328654694056 5.840944116068542 0 0 1
4 2 0.1543128491672609 8.29972947624351 8.017514337181552 7.575681859648655 -1 0 0
23 1 -0.1202094711423672 3.18154641667049 8.329387120024313 10.762833445764237 0 0 0
27 2 0.1588389595909104 4.9638485563559644 8.449983898610409 11.918711304801018 0 0 0
25 1 -0.1678814619629043 4.5123362774805695 8.709326813979384 11.017305986086495 0 0 0
20 1 -0.002789329156895162 2.632810789130713 8.478532237187224 9.462127299811506 0 0 0
11 1 -0.338421786214598 8.968639570849078 8.553973464465052 8.159563034631269 -1 0 0
13 2 0.1840158342290474 8.500195113545729 9.273714182037843 8.865212532258997 -1 0 0
15 2 0.1363503516288585 9.601834368423198 9.108254176172302 7.553899741873423 -1 0 0
24 1 -0.1143573413241086 3.3721844991528824 9.187732777324905 8.47714415553972 0 0 0
22 2 0.1284756328082142 2.9602196317563703 9.378162320798822 7.487888074855891 0 0 0
26 1 -0.1421585255346995 4.666813744765028 9.657389179429458 8.758585659609075 0 0 0
28 2 0.1638048719797147 5.18141216804001 10.25784892467439 8.090243422799183 0 0 0
29 1 0.2156539733100439 5.304523709270276 9.392061379795873 10.026405474789087 0 0 0
30 3 -0.4875855688749647 6.650520975620034 9.870959491623957 10.315645772064833 0 0 0
31 2 0.1569982946731335 9.093504495953894 9.786541687225535 11.754752481610781 0 0 0
32 1 0.2134108905668147 6.91389693178827 9.991782352828437 11.75934350134817 0 0 0
34 2 0.1888902363610067 4.928376041118124 10.420144528133275 12.19971297128389 0 0 0
33 1 -0.1596254098401902 8.21305909247472 9.906416110383608 12.347921220548919 0 0 0
37 2 0.1858662346294742 9.438766367495047 9.886253728317925 14.096138357490364 0 0 0
36 1 -0.08455061799619566 8.44536623449519 9.949280176871461 13.727818466846399 0 0 0
39 1 -0.03426923719080311 7.30634897518766 10.068676840442508 14.599585462390522 0 0 0
35 1 -0.1546959423142084 5.839559992928212 10.270224949269078 12.612582828523955 0 0 0
38 1 -0.03688296634171554 6.01567456054167 10.292822918099459 13.998266597228234 0 0 0
40 1 0.3666672397772173 4.901492987051719 10.44729044738677 14.94114847988779 0 0 0
41 3 -0.478765584163663 3.627253050585349 10.437600612851384 14.754644357666535 0 0 0
42 1 0.3200304490591123 7.359845426241247 10.10028697719467 16.03958009701381 0 0 0
43 4 -0.3717776048025164 5.646006609712482 10.470792847748726 16.18694384584697 0 0 0
45 2 0.2233830443350744 2.872474691354859 10.77231577414069 16.55599083115181 0 0 0
44 3 -0.4222393158506758 8.296146665683526 9.860160937643329 16.860792839780046 0 0 0
51 2 0.1997526805557491 1.891284151175989 10.992920376158432 18.648692564868373 0 0 0
48 2 0.2467916430865871 6.74316545366171 10.62787252248071 18.52486408493826 0 0 0
49 1 -0.1327266014596366 5.711307653871011 10.617508028669114 18.629841273649085 0 0 0
50 1 -0.0854659398839073 2.9513743468738856 10.918289503568353 18.732831006209384 0 0 0
46 1 0.1748971986232878 4.993756355088745 10.603325582687505 17.41284457978425 0 0 0
47 1 -0.1013122159297279 3.5771544577743417 10.749596886089233 17.46189831348024 0 0 0
84 2 0.1580536410674216 1.8995878406271616 7.494609035311885 25.18563968484455 0 0 0
90 2 0.1412454886031145 3.176838720798356 5.053741518321632 24.827405225555694 0 0 0
94 1 -0.1416139275730586 2.7372298065277336 3.009650920391726 25.306357100859334 0 0 0
92 1 -0.1353853199019806 2.834109089546338 4.38859398000272 25.57451367944535 0 0 0
96 2 0.159612138401633 3.0294550042217328 2.7520878237365043 24.24821878190408 0 0 0
86 2 0.1430540466754916 9.267312933508197 6.181136909136993 25.485539276057676 -1 0 0
58 3 -0.4503176081700379 4.054651322751557 9.279348344426715 22.610601556980413 0 0 0
56 2 0.1982461907729475 3.1512708711526276 10.68021771382208 20.858077037944195 0 0 0
59 1 0.3216427270878831 5.200472278533788 9.796518999249361 22.405374137232258 0 0 0
55 4 -0.3854711615021005 5.858671059774395 10.582622542588538 21.055225201817333 0 0 0
52 1 0.1876050950895661 5.07677588426648 10.65916572999354 19.91148760616096 0 0 0
53 1 -0.1177556210565259 3.668238613601906 10.743798378332068 19.949586952931433 0 0 0
54 3 -0.4264468451698615 7.971216293035077 11.445051993479446 20.28597284658398 0 0 0
57 1 0.367521944268332 7.2501665927416195 10.824910674767054 21.171836048380918 0 0 0
60 1 -0.04691943903684528 7.568998371077824 10.486765312703744 22.569921948733306 0 0 0
62 2 0.1790092207975673 9.63053132565499 10.956096022070126 22.9767592710525 0 0 0
65 2 0.1837160467055605 5.505241885006908 9.107850005805187 25.04473290544518 0 0 0
61 1 -0.03181326600985804 6.38989794702277 9.94901139431181 23.241773014156298 0 0 0
64 1 -0.1397135087861929 6.399756080920474 9.5065642121297 24.576395062101167 0 0 0
67 1 0.202564769710058 7.573735583441985 9.632070406984353 25.356859999310466 0 0 0
63 1 -0.07292610909415985 8.75284439571195 10.555018780259607 23.39169311150864 0 0 0
66 1 -0.1482707199266765 8.74984227494453 10.191370447238782 24.736671551217633 0 0 0
68 2 0.1840587625885522 9.612306176349719 10.350896225565299 25.28232709669693 0 0 0
99 3 -0.4686183700877125 2.0984981071943154 12.797204705515695 25.860330589748912 0 -1 0
81 1 -0.3319791699966528 9.699047252565796 7.0362285155612545 25.981970616167747 -1 0 0
75 2 0.1928405656962995 8.912770528435832 7.749449162135385 26.238164680014393 -1 0 0
77 1 -0.1751566640244124 6.106656144255752 7.0382014113027545 26.73303243154871 0 0 0
78 2 0.1426281711435567 6.990148020267331 6.566294706564415 26.430580985090796 0 0 0
83 1 -0.1138400199653913 4.824957891642115 6.392055151751712 26.830152847945005 0 0 0
88 2 0.1524481159152429 4.7640822299633285 5.3530670194133965 26.645237907522905 0 0 0
80 1 -0.009856010609647199 3.6187339916172956 7.153740211551013 27.19181885044267 0 0 0
95 1 -0.1490709147398226 1.9875091959830593 2.5848758002294625 27.47811285209493 0 0 0
93 1 -0.113748445374406 2.079687246126878 3.9665080582461325 27.806229127001526 0 0 0
98 1 0.2224094726292016 2.2088651341575063 2.0289134810342113 26.179593257898638 0 0 0
89 1 -0.02304263737509801 2.4547272122396673 4.950660109302298 26.857738852079148 0 0 0
87 1 0.004496189885767457 2.2301147292214996 6.481846766098152 27.106562205137408 0 0 0
79 1 -0.3295300220435581 9.724098899697061 6.799851647868735 28.377868928425787 -1 0 0
82 2 0.1526350182606959 8.772463618052688 6.417319162960743 28.146546788314858 -1 0 0
85 2 0.150282596908918 1.720600979466237 6.2718706757974285 29.223599633824914 0 0 0
91 2 0.1401308412639188 1.7804602858306446 4.237681268963771 28.81572579329865 0 0 0
74 2 0.1693206997785364 9.671079497876411 7.8617625153967055 28.592564720534174 -1 0 0
97 2 0.1695862459072074 1.6702356688311837 14.061499500557769 28.30949232335315 0 -1 0
70 3 -0.4958633075609929 7.545881870750147 9.098462932760237 26.7189037516654 0 0 0
72 1 0.2005672187714427 6.227192293896648 8.42013126501259 26.999506524520648 0 0 0
101 1 0.1830116709821483 1.7994489400811673 12.05623861149989 27.143060228989086 0 -1 0
71 1 -0.157214680205525 5.090639454467478 9.155347545892766 27.294863196385123 0 0 0
73 2 0.1559354235093636 3.0400038257318505 9.161668385093837 27.675386016287828 0 0 0
69 2 0.171879889731315 5.241449819217543 10.248970576425467 27.479420517396136 0 0 0
76 1 -0.1220321257881044 3.8185383011803737 8.524128754780453 27.381513948794733 0 0 0
103 2 0.183795843947956 8.183068815737958 12.521806630484196 27.24350305121739 -1 -1 0
100 2 0.1713297025131347 3.7647987301418646 11.435757760320532 27.33715103268765 0 -1 0
104 1 -0.1498143352845819 8.996302234469223 12.105529804274015 27.743687183339876 -1 -1 0
102 1 -0.1569150637197967 2.8463660567402425 11.415377501567157 27.836312831918928 0 -1 0
110 3 -0.4356401089445378 6.322441083993445 12.2734579883108 29.73931155523741 -1 -1 0
114 1 0.167857049666926 7.992506232556064 12.282492803980011 32.37581579547519 -1 -1 0
109 1 0.3277047250072784 7.557613358859466 11.900037480145306 29.91664862428573 -1 -1 0
107 1 -0.03714762179931931 8.737948262143615 11.704164075614047 29.065861140046763 -1 -1 0
112 4 -0.3635581115274464 8.222927136052942 11.46023213281025 31.258604976524705 -1 -1 0
116 2 0.2110498432575613 5.819063559775215 12.37608999288236 32.08408775929419 -1 -1 0
105 1 -0.1001353133986768 2.703880429610682 10.930673274793213 29.168411312924515 0 -1 0
111 1 0.3368293893494516 9.557958757314822 10.818020449493206 31.2168920938295 -1 -1 0
108 1 -0.04699112902852891 1.4304408727718974 11.126097900112747 29.790712504435174 0 -1 0
113 3 -0.3957321313553585 1.7521583259141054 10.258110109282478 32.19704555122819 0 -1 0
106 2 0.181200796740365 3.437649860401445 10.548170166748225 29.801583796616065 0 -1 0
118 1 -0.09462073379093996 6.662403693298526 12.73547222539636 32.64044215597492 -1 -1 0
9 2 0.1617826378785946 2.9973853031775466 5.708523751230349 38.78898166651885 0 0 -1
131 2 0.1825241989375967 2.0548767572915203 3.4058055389068054 38.80676676617901 0 0 0
135 1 0.2124453905056763 4.21347243815331 3.4963916536237756 38.41902475746814 0 0 0
136 1 -0.1226446650634682 5.216166587568214 3.290037418242802 37.390848309616956 0 0 0
125 1 0.3827516965663286 9.47989151398353 2.542488575166627 36.4006227482939 -1 0 0
127 1 0.3510652901979409 2.7460312304571515 2.1639920027744237 34.56311697058516 0 0 0
129 1 -0.03483378777511346 2.432863635797986 2.8625316040245727 36.84777614619847 0 0 0
130 1 -0.05268905822506134 3.4285785341657022 2.6837536303467586 35.7752350698771 0 0 0
132 1 -0.1502038403060513 2.8363404192721364 3.3004402385886804 38.0915590446034 0 0 0
133 1 -0.1088346140218129 4.792126409308606 2.946011126602752 36.08394392937376 0 0 0
122 3 -0.4957654293052755 8.30846549224406 2.826934880815009 36.85451414363516 -1 0 0
134 2 0.1482520151528982 5.533574957995851 2.8805911794381784 35.31453173788063 0 0 0
138 2 0.2134812717787161 6.238048293604549 3.426644048833686 37.60524034625938 0 0 0
128 2 0.205673265032042 7.2098313202171 2.5247371714217306 35.395674804996005 -1 0 0
124 4 -0.423247179835422 9.806356195679504 14.159588063757498 35.11135163754286 -1 -1 0
115 2 0.2464693969371002 1.5541426968620335 12.586501255751816 33.00993288725024 0 -1 0
117 1 -0.1308760026978563 8.99427982785193 12.781175447890805 33.22899026278936 -1 -1 0
126 3 -0.4558243360009339 3.08107701436764 14.030203179147431 33.341111144339976 0 -1 0
120 1 -0.1106937185161194 6.33377701972972 13.59942821333541 33.707233219996056 -1 -1 0
121 2 0.1809280683557522 5.3472110834888085 13.895065897024258 33.911381307010835 -1 -1 0
123 1 -0.1256023604613856 7.427819893551528 14.01606432942967 34.52384619009999 -1 -1 0
119 1 0.1939233747289832 8.768524216691798 13.686806467140592 34.29507538579867 -1 -1 0

Velocities

3 0.002038804229116095 -0.004401519706797224 0.010761362846323199
12 0.00018125790566354155 0.0005386128053561189 0.0027510484376880497
8 0.0014428078185482398 0.0024235759878009993 -0.002345966960604525
5 -0.020674603555639333 -0.002654912030132479 -0.019819321021885168
10 -0.004218592133364287 -0.0033692555929199456 -0.003605001567257597
17 -0.00303857726718655 -5.2347696542649126e-05 0.005949528913812983
7 0.004242784235485354 -0.011037529002687804 -0.0028054252400149912
6 -0.015425642353971224 -0.02430409105823791 0.023020680515339276
14 -0.002737972167167885 0.002100558761764788 0.004986198939363024
18 0.02056570203697532 -0.014382255403859262 0.03543906277274458
16 -0.0015146391080630248 0.008797583575648837 0.013683875073650915
2 -0.006355258562771573 -0.001391973564721051 4.365361588150624e-05
1 -0.00897515151857658 0.007505025849603521 0.01539320206619528
19 0.009676706662609292 0.02649937956936836 0.01108659651142532
21 0.023375084092429176 0.010828021729158206 0.012881758917271594
137 0.006012717971608102 -0.0004118136412216717 0.00323179895850966
4 -0.021247659312537266 0.015555656125953152 -0.002810190719534366
23 -0.0044026661453576465 0.005661121928421984 -0.008351868984924458
27 -0.019508002493741742 0.010638305084226982 -0.003983036653489904
25 0.00115285552335029 -0.00029814428028772827 0.004552371301747858
20 -0.0033896140941430905 -0.002925666398979308 0.004886408685307954
11 0.0007332377910532788 0.0005724793606113002 -0.008713333738048144
13 -0.0009655195442579023 -0.007958745070946556 0.02127345456390237
15 -0.0005361955150920381 -0.009025082399180318 0.006677554833989546
24 0.008055644552485626 0.010009963833856718 -0.0038580040273773456
22 0.02550619090210775 0.00031533551963443854 -0.0006578979614411263
26 -0.003946830527148249 -0.0014774450435311192 -0.007636662429376536
28 0.00565871783821553 -0.0021135011835382127 -0.012850566964618301
29 -0.005413018320359949 0.01018380747730398 -0.00516495321212329
30 0.0023543183248030523 0.00029713077093454867 -0.008660406938456875
31 0.009758423935517983 0.0064520725632324786 -0.008154410854719749
32 0.004952771866098389 0.0029251391594364894 0.0014889565541437218
34 -0.009495838217389784 0.00280828224624271 0.0044346090478980926
33 0.0012182800983222611 0.007387345067060221 0.003323893859765053
37 0.005772114119466172 -0.006924898463724734 0.011465389103117446
36 -0.0034145705504618935 0.002089814036015377 0.0063669431273894435
39 -1.737618918439863e-05 0.002332668455544075 -0.003342812693924061
35 -0.008210701045733864 0.007935857086029476 0.00014511568323731478
38 -0.007203482784816525 0.005661851731473276 0.010964045540793102
40 -0.0012923598546202507 0.0035590518395909685 -0.0017166961032265189
41 0.005716882764093026 0.007353983592857451 -0.002272283826491688
42 0.003986531561627559 -0.0005030527165351143 -0.0024702188986364484
43 0.001882053949899867 -0.002799696781375629 -0.003246670162469457
45 0.010534925994255602 0.0013884612608173754 0.00679480599072886
44 0.0014921015863430557 -0.001894041420896902 0.003866384868770829
51 -0.034790442034840836 0.005459744591069275 -0.012720892523014634
48 0.006632596652413731 0.006332320194079666 0.01652408903600391
49 -0.0008940341717933591 0.0008941497710259886 -0.003782623361647383
50 -0.0004040489392587272 1.3875792269311673e-05 0.004115628880545139
46 0.0024872766369518047 -0.005069023616913877 -0.0009294026762090734
47 0.0021163193913489873 -0.003592033604643534 0.0026852840877840964
84 -0.0006918689941353362 0.023463797309294893 0.0016565740195331649
90 0.001188772626738652 -0.02000017162739443 -0.011476894901284344
94 -0.0002450002452658322 0.007122125905031553 -0.008514258204379054
92 -0.008362813304493745 0.007638838331188522 -0.00029816547919078414
96 -0.0004880518047238331 0.0036919155028491556 -0.0027160300500520137
86 -0.012170369972284323 0.04037755794124993 -0.015516176635182777
58 0.0002075217363927743 0.00456251848539014 0.004453179794193398
56 -0.008875723712421473 0.0023935664396262466 0.0029733618396292475
59 0.0035604823471951427 0.005964045028824998 -0.004212926781390335
55 0.0018096789656371164 0.0012709821955576314 0.002254927045620711
52 0.004105910150484763 -0.0017923275623029362 0.0008084380540882471
53 -0.0018803655967531874 0.0009125417867437326 0.0018748901523668658
54 -0.00032905204732342256 0.001825072049267258 -0.006513931405585308
57 0.005047464580855727 0.0029244065400096503 0.005805262468148401
60 -0.007855026815018248 0.0013836561078629688 0.0077281040378906485
62 0.02965064744355595 0.011801896603455344 0.005437483750929154
65 -0.005722579620119395 0.0193033763625185 -0.0012673764624087749
61 0.0005041109789682814 0.00049524029867623 0.004698213862028009
64 0.008591009944643374 -0.0006409586587226164 0.009598550482995358
67 -0.0025687503876175425 -0.0017957694429046056 -0.001668131353585973
63 0.001733388910771107 0.00969058898878244 -0.0004571929920961079
66 0.006476876918415759 0.004495181536600347 0.008093881788603974
68 -0.02495116479347095 -0.009436129477267373 0.010174591426354003
99 0.002430408781366114 -0.007861604872619126 -0.0030619387043369375
81 -0.0034816789525642677 -0.0028284932610212177 0.0034744743681076507
75 0.028599837628435817 -0.003942467199728995 0.0018041759881916235
77 0.003499285108992176 0.005069866684999856 -0.0015522348087457273
78 0.006032289046196221 0.00670382529799193 -0.0027276868772367685
83 -0.0007619410386064005 -0.0019655738801348274 0.004238235971405939
88 -0.004380392531036023 -0.0004899290203129302 0.00015703216630544246
80 0.0087822109468155 0.0022278122462686123 0.0009424115786562289
95 0.003769513804350735 -0.0034552332303524197 0.0006094128797966951
93 3.2423765300572254e-05 -0.0020760022566976267 0.0018943773677451326
98 -9.243811637649104e-05 0.002748568513640306 -0.00026795149407878824
89 -0.0009390209249939927 -0.005627499026717976 0.0037274081577284798
87 -0.008096497910871187 -0.0035146552302451175 0.006854193158748308
79 -0.0019762915928575268 -0.0022414244793905564 0.003458192205740025
82 0.0031612707676127987 0.014001891915105818 0.01550925944291076
85 0.019922121130951403 0.001031502954742744 -0.0013073019051359634
91 0.0069135875999669395 -0.013029296805387357 -0.0057956366847039375
74 -0.004245784589725411 0.00686545387598159 -0.004479005520708525
97 -0.011859850075265351 0.014900651693334975 0.01704934761367916
70 -0.00010112472950509503 -5.03688966469052e-06 -0.003885203263408474
72 -0.002885677439569661 0.0016391342699108179 -0.0013130476602773093
101 -0.00228520465787937 0.0027449552162911303 -0.006592817187624229
71 0.005204147763487716 0.0010790620426273717 0.004573396862904903
73 0.0061596872627152615 0.0029375417774993176 -0.006461038772231187
69 0.02114782775253174 0.012730963678089784 0.010960425215826363
76 -0.013011038297389085 0.0013326536979248117 0.0033160341254980085
103 0.020607088215948956 0.0023948746061293854 -0.04575319040578513
100 -0.008739248444031475 -0.003194855388052872 -0.004984040771693454
104 0.002068490454204094 -0.009414471933430006 0.005842475231057638
102 0.0036087248916546358 -0.004098580052333218 0.00048613253836033105
110 -0.0015370471212625132 -0.00185128615894652 -0.005187528229394589
114 -0.00986717698557371 0.0008009569414226743 -0.004245938542690413
109 0.001378148785936424 -0.015955937725352094 -0.0025249910921843308
107 -0.0031844542183174012 -0.004722169272799661 0.00158357830408869
112 0.005300627413286083 -0.0024654272431630575 -0.0004429121130428251
116 0.0053093414945635155 -0.005859552988357541 0.006559308212299824
105 -0.0009950384987586695 0.00111885849828188 -0.004854995662267909
111 -0.0012716931004438615 0.0007109905233135666 -0.004259222349815103
108 -0.005463784148604456 -0.0011310795759674455 -0.0024595780377222602
113 0.0050970877110001955 -0.006337159507676387 0.0011253057023231218
106 -0.011750044626038554 0.0023347479457474494 -0.0033786445192591007
118 0.00382074577302029 -0.003962936884427894 0.0008758456640944642
9 0.0033345904297888505 0.01107470957057822 -0.0038988108788314785
131 -0.017952396615992783 0.001080701495072191 -0.008178218140197757
135 0.0014034370238033913 0.0010907985360385562 -0.0033452676335466156
136 0.0029293298995608313 -0.01036351255606392 -0.001964202657004673
125 -0.0007856311826545654 0.00026471514002379654 0.0024001365156322285
127 0.0013883533361098662 -0.0008541664835454608 0.0016938170178431352
129 -0.004123561568694907 -0.00305811636191913 0.0003189135687915559
130 -0.004562076598223889 -0.004348596654827281 -0.0019056730399964392
132 -0.00827648640552643 0.0003487469939581001 0.00012179843945151016
133 -0.0035604312161234474 -0.003392662279304184 -0.00466570660302815
122 0.0038327185629647978 -0.0017831292408684693 0.0030572758993593955
134 0.014444556421743119 0.008446789139658895 -0.006819581294774406
138 0.008574660104159028 -0.01123094970585253 0.013017701915218595
128 0.008618782886255172 0.01912662527096428 0.040704333756120925
124 -0.0020613278975463063 -0.0048034577631271645 -0.003608172053004437
115 0.03166609349969376 0.0014922189409992414 -0.003984485798307109
117 -0.000234357272111902 0.0004842520244743344 -0.0008937555050861901
126 0.0016850874012026603 0.0036196007398461134 -0.0029679399420251954
120 0.0010425736090020105 -0.005824502647988278 -0.0051290533861491966
121 0.016512287670300295 -0.015013844763223176 -0.032170968216627925
123 -0.003210835376033428 0.0011669407543190402 -0.004183312165795067
119 0.000742683623336289 -0.00035415035934490666 -0.00667599986141948
