LAMMPS data file via write_data, version 2 Aug 2023, timestep = 500000, units = real

138 atoms
4 atom types

1.9110258877618342 9.30959611223661 xlo xhi
2.758371395069603 13.437454604930618 ylo yhi
7.689007444914086 37.45713455508547 zlo zhi
0 0 0 xy xz yz

Masses

1 12.0107
2 1.00794
3 15.999
4 14

Atoms # charge

12 1 -0.1351621386015486 2.1081952212833177 5.0902047335383065 9.397563251272071 0 0 0
10 1 -0.005699253172353275 2.3128808775429963 5.939561307214159 10.523331928432865 0 0 0
24 1 -0.1188505948213211 4.356049655047389 8.271315001631493 9.409617548649233 0 0 0
16 2 0.1185538910765234 9.128341285329078 5.510366679834792 8.480157857004308 -1 0 0
8 1 -0.1555359115829273 2.4373651389099034 3.732763752185846 9.439893836883813 0 0 0
20 1 0.002970368263114015 3.3921744356086263 8.261713852079566 10.437380231395059 0 0 0
17 1 0.003977054901099723 2.0359505614457976 7.447801807601383 10.400334257761557 0 0 0
11 1 -0.329772288999775 8.70006190571589 7.811321047962326 9.029503821078524 -1 0 0
22 2 0.1360546793732347 4.256006325935013 7.6636591962316505 8.552114462276874 0 0 0
4 2 0.1874795270214578 8.583390325809741 8.82945306966706 8.968304529238015 -1 0 0
9 2 0.1495920921529332 2.436166851417252 3.2107567892265174 8.48009351891861 0 0 0
3 1 0.201701167747574 2.9744662110692817 3.1114852657105203 10.600320983810208 0 0 0
6 2 0.1382978881591929 8.720132067914093 8.0184230308165 12.36819095326002 -1 0 0
5 2 0.1495981189402591 2.8653266105996713 5.836545381029136 12.644776098437982 0 0 0
1 2 0.2216009061940354 3.142702886148851 3.4568638926424344 12.783196993900452 0 0 0
2 1 -0.1215546076172664 3.1140797285905046 3.9389598233867313 11.76424718313865 0 0 0
7 1 -0.1129696513552472 2.79967970035258 5.322293009314823 11.700688618000019 0 0 0
14 1 -0.335098220181392 8.34264264900929 7.939053136849526 11.415540073039189 -1 0 0
19 2 0.1484798276651442 7.423399313222497 7.27479443382774 11.387252398065323 -1 0 0
30 3 -0.5256582104551812 6.936616359212577 10.773751218652393 10.76461069573467 0 0 0
138 2 0.1901705613568829 5.355413796277382 11.969551979632524 9.17459039549595 0 -1 1
137 3 -0.5108117497738978 3.2288163286156095 12.316574278290016 10.853679720596872 0 -1 1
29 1 0.212204509489767 5.745302309938319 9.922526302580644 10.7264180320563 0 0 0
135 1 0.2144917578319873 3.261739598593112 11.565899642295534 9.566599370672769 0 -1 1
131 2 0.2125242081393624 8.641687333635605 11.038548125485239 9.565774196779026 -1 -1 1
132 1 -0.1505946733457509 2.08789144084808 11.067084737005644 8.931303920509023 0 -1 1
136 1 -0.1392969705359232 4.481770495165237 11.51331469417951 8.860923096802042 0 -1 1
26 1 -0.1459447477180587 5.534721948402257 9.024040106590967 9.643826362997364 0 0 0
28 2 0.2060095344178531 6.235356379809252 9.10650873364072 8.730832074848117 0 0 0
31 2 0.2038558064536278 9.205021815303482 11.62247116119639 12.084507441995253 0 0 0
34 2 0.2142002146728611 4.914493712888229 12.277084621609646 11.951967911777386 0 0 0
32 1 0.2034597799744834 7.064642237579975 11.670253150518594 11.952209689384294 0 0 0
35 1 -0.1457478909768892 5.9177408728848375 12.321728408937627 12.454785189025197 0 0 0
33 1 -0.1422817550635667 8.299868416585493 12.02968935625016 12.48695289595982 0 0 0
27 2 0.1515779686734118 4.924735000261149 10.303234723802962 12.663217455439629 0 0 0
25 1 -0.1620546433202773 4.790585400654325 9.796210425716088 11.736218812055021 0 0 0
23 1 -0.1201702043226114 3.6293956880098106 8.991165090026403 11.607602952059356 0 0 0
21 2 0.1297210380590664 2.863677098864124 9.177082131340704 12.36443629022273 0 0 0
18 2 0.1824791424349569 7.918794455564973 8.871708575165481 11.123842814961701 -1 0 0
15 2 0.1452558082711338 7.71190643723375 7.392924472781282 9.028092440103435 -1 0 0
13 2 0.1412257313212669 1.9390352530511334 7.43045281315822 8.21272983454257 0 0 0
36 1 -0.0892954451960114 8.498158990270028 12.827358503818004 13.653683443189072 0 0 0
38 1 -0.05595972578106444 6.0260997359169695 13.06653042509419 13.686220007413723 0 0 0
37 2 0.2243480453991731 2.0888711092895424 13.018507163258253 14.072018127348839 1 0 0
41 3 -0.5482578391678031 3.716953204678873 2.9542993585737753 14.452984274958332 0 1 0
39 1 -0.05394652451604164 7.321286183321743 13.237888259689935 14.328301084087123 0 0 0
40 1 0.3808176491680942 5.013268063741431 2.8878890219618496 14.60720658914414 0 1 0
42 1 0.3623798920033239 7.269282981139929 3.26877630440631 15.627133953544117 0 1 0
47 1 -0.1068854385940736 3.689989595667556 3.752390706199692 17.03099827224871 0 1 0
51 2 0.2255775504766523 1.969160882566588 4.00789076696927 18.339460867556284 0 1 0
45 2 0.2353037026707678 3.16092110099231 4.021709105275754 16.21039757678888 0 1 0
50 1 -0.06487180803617937 2.9969453674761244 3.710538011835515 18.27418120066619 0 1 0
49 1 -0.14274183145051 5.72180571669211 3.2254432079694793 18.199894748265862 0 1 0
46 1 0.1763905832337294 5.07052291242713 3.506218513343972 16.972423041695677 0 1 0
48 2 0.2274256314928845 6.75782270470939 3.004857212444599 18.171922687652106 0 1 0
44 3 -0.4582992840778642 8.153058915155702 3.9099098403102426 16.304213334377646 0 1 0
43 4 -0.4155167044241665 5.781128948473308 3.344962625637563 15.73607681244736 0 1 0
52 1 0.1783358452686499 5.073485091775423 3.1122582304088073 19.453356385888355 0 1 0
53 1 -0.09452260267697477 3.631230994586825 3.4151144911383318 19.494513530491886 0 1 0
54 3 -0.4749025939361327 8.246226661371384 3.265327353316548 20.12791298172521 0 1 0
56 2 0.2267199302952639 3.117740760041751 3.507406229873242 20.46987907844695 0 1 0
55 4 -0.417215511814793 5.70823860340967 2.774916848642887 20.634924550598903 0 1 0
57 1 0.345201103572391 7.335318932694885 13.325597256767061 20.77061814146567 0 0 0
58 3 -0.5422748431498646 3.724719540735344 12.712356950601219 21.865470025429964 0 0 0
60 1 -0.05925220651918808 7.305131304683443 12.511207798561273 21.980546246074717 0 0 0
59 1 0.3815266435007321 5.021881537428327 12.83895752360203 21.70694773963025 0 0 0
62 2 0.2290605959197991 2.05209892436111 12.188593982850787 22.24614168491246 1 0 0
61 1 -0.04745559203476574 6.01093116180187 12.217487521331456 22.56109472816958 0 0 0
63 1 -0.08265402758718166 8.450165586944943 11.961155707519783 22.61348132371083 0 0 0
90 2 0.1432623007347587 2.9719689893299197 5.115324617238828 23.65266809334988 0 0 0
94 1 -0.1284421898038913 2.9560790893726594 3.1526806222520585 24.446878154951964 0 0 0
92 1 -0.1236869605082701 2.7711363256340267 4.558376205677857 24.482229627517704 0 0 0
96 2 0.2232820712744548 3.190933138418119 13.313617129432455 23.53445609908045 0 -1 0
65 2 0.2034879140461459 4.858694093767926 11.09017932805278 23.96901198973116 0 0 0
64 1 -0.1505371516265693 5.8054031261602725 11.32316495895683 23.667608994758222 0 0 0
67 1 0.1961372264018912 6.950085439647703 10.69228730957149 24.19566601921823 0 0 0
66 1 -0.1233948708462641 8.252285984174723 11.05680424540082 23.692325100252614 0 0 0
68 2 0.2127756763704006 9.113899683736019 10.612060008869133 24.126983511393608 0 0 0
77 1 -0.1714464785916833 4.914699483074058 8.673425288210534 24.178717670845312 0 0 0
78 2 0.1475190864254592 5.358179805223278 8.864311371189409 23.23163142493455 0 0 0
83 1 -0.1276649511676005 3.68620526580478 7.988171688568471 24.282219537615795 0 0 0
88 2 0.1264466592133034 3.1293250950049645 7.776289288996582 23.429054986500866 0 0 0
81 1 -0.3387774847621584 8.314055076843157 6.934292267227715 24.46174728521394 -1 0 0
75 2 0.1353692327718601 8.838538855860318 6.947136349806308 23.568321597870305 -1 0 0
86 2 0.1970519612759443 7.792078239708537 7.907388588417598 24.608347376196726 -1 0 0
84 2 0.1555805001391479 7.6277865167496985 6.132440328715631 24.518211317583983 -1 0 0
70 3 -0.5293370045606663 6.963556014985719 9.601264593980465 25.22512857045066 0 0 0
72 1 0.2175546927293439 5.678536310869209 8.943340213045941 25.340138052027395 0 0 0
99 3 -0.5004573591908145 2.9370582129451654 11.604359933708935 25.41233088549798 0 -1 0
80 1 -0.0005553577715080305 3.292617852347142 7.462353147440784 25.514228673744018 0 0 0
98 1 0.2207526411875191 2.6274349457312542 13.019693970936899 25.569898009992585 0 -1 0
87 1 0.009287905172840944 1.9471703894078498 6.767006505424704 25.669522698665627 0 0 0
89 1 -0.01045216030661448 2.2560893490054705 5.207397930219258 25.61719786547615 0 0 0
93 1 -0.1262204258084153 2.1570968728566573 4.441244428475801 26.788337051230098 0 0 0
91 2 0.1242518124675765 9.265031333905561 4.94476709534613 27.717988117780788 -1 0 0
85 2 0.1441464729226388 2.0011344125176844 6.8263454641056445 27.81341990387566 0 0 0
95 1 -0.1699056386571969 2.2609831432849776 3.0212418050874996 26.76893860207615 0 0 0
82 2 0.1474975404486277 7.824322823147237 6.585948991149193 27.33486479571034 -1 0 0
97 2 0.1511287525796561 2.132098874064722 13.112337968844564 27.65335286761224 0 -1 0
79 1 -0.3203525772199862 8.732539990028648 7.144177177878494 27.034448241287816 -1 0 0
73 2 0.1511486334577238 3.740846017268933 7.444825443386553 27.641608769412645 0 0 0
108 1 -0.05104881992168982 3.3771285624538763 9.827152499792616 29.286464689946648 0 -1 0
110 3 -0.5235887917641602 7.104822535626053 9.057357406839207 29.113699035410168 -1 -1 0
101 1 0.2178529929973327 3.088978635965952 10.941819169247722 26.740885233375323 0 -1 0
104 1 -0.1529031507311588 2.015827565575964 10.250159016840986 27.244358316423295 0 -1 0
102 1 -0.1513167123991558 4.29812777491097 11.080654094431747 27.45783481732355 0 -1 0
103 2 0.2048320800708273 8.414647107390262 10.222437709196146 26.770135875844325 -1 -1 0
109 1 0.3478936449536578 8.383428164738817 9.255088297046118 29.354038430612448 -1 -1 0
107 1 -0.07023023354759719 2.090643340576296 9.784899323440335 28.565149402727666 0 -1 0
105 1 -0.08723092475003125 4.526566834476354 10.456468064205218 28.700528892675827 0 -1 0
74 2 0.1911623415250901 8.543758999849494 8.191093897681409 27.10845494638414 -1 0 0
69 2 0.2040794854137336 5.799655530944435 8.526389641136792 27.468372642267546 0 0 0
100 2 0.177747898788325 5.138156508817816 11.431943933034894 26.905955486482124 0 -1 0
71 1 -0.1475047904382232 5.258600279662998 8.461399885697709 26.625022710975774 0 0 0
76 1 -0.1112412553832157 4.005312267916008 7.819454768769763 26.700893985913783 0 0 0
106 2 0.2042493123170967 5.485770439677397 10.375432359831201 29.139035349828692 0 -1 0
111 1 0.3515648536098522 3.2697897009543855 9.008008270455509 30.506677351246857 0 -1 0
112 4 -0.4041175629107946 9.123314691490384 8.893172557486416 30.557929081762996 -1 -1 0
116 2 0.2376041809333702 6.4438121869072935 8.383429810766987 31.050749245428104 -1 -1 0
113 3 -0.4633105932836841 4.139053095029258 8.45055067034059 31.254144293764174 0 -1 0
129 1 -0.06057972327484654 2.118027814893037 10.446864644005801 37.43159661278878 0 -1 0
133 1 -0.08358453996477401 4.473209152032018 11.04966166807268 37.31234581243024 0 -1 0
114 1 0.1669595428056637 8.40586673715995 8.757232515064636 31.783047773892847 -1 -1 0
118 1 -0.1067195537804913 7.023223841999526 8.402984651675713 31.897084713552164 -1 -1 0
134 2 0.2034302171617353 5.420301133004798 11.002198071422349 36.810210532658544 0 -1 0
117 1 -0.1363146640248241 9.081280286576948 9.121806626533271 32.96981618002602 -1 -1 0
115 2 0.2505209826184179 2.6960247939189124 9.387304121672141 32.88124733587827 0 -1 0
120 1 -0.06433904575675464 6.364082738380614 8.325608249220231 33.16176241755081 -1 -1 0
121 2 0.1995454273830099 5.38955375395326 7.96906559307389 33.25379261675509 -1 -1 0
126 3 -0.4316760279088472 4.063155930165257 10.049088579492452 34.27950647861641 0 -1 0
125 1 0.3701483739854813 8.424281750921264 9.877784955579894 36.62021516313922 -1 -1 0
127 1 0.3250901127386545 3.235548055952389 10.07170272660666 35.26348209489609 0 -1 0
130 1 -0.04858856676376917 3.341828768587999 10.534763114818023 36.64376732592532 0 -1 0
122 3 -0.5478294676200535 7.183886010790294 9.63487000212606 36.93479427227187 -1 -1 0
119 1 0.1877344005538421 8.415773838960586 9.187954043449981 34.24525088373889 -1 -1 0
124 4 -0.416317385900508 9.062614946358936 9.66761887781113 35.36213761159787 -1 -1 0
123 1 -0.1221025903143632 7.1126385780269095 8.693458762894403 34.29713375841064 -1 -1 0
128 2 0.2073648189991086 6.566365429792131 8.664527527482281 35.21834914016276 -1 -1 0

Velocities

12 9.060558499653341e-05 0.001171259742526625 -0.001021183079275042
10 0.0032500912724894664 0.004913984963142877 0.005645694125895126
24 -0.002386708932869813 -0.00229942182733818 0.004755025691153783
16 -0.010766814442736614 0.008750655763272846 0.00634852120005024
8 0.0013101055687977927 -0.004752737868316778 -0.0011860273151671633
20 0.007626220465395971 -0.0014364265341093765 -0.002074399507035469
17 -0.0011742455784608296 -0.0023375271400711876 0.004621119800141031
11 0.001377058829991294 -0.002977062477830203 0.008351229609663993
22 -0.008136761725891395 0.036148620297770974 -0.019483403236458332
4 -0.02461430792289167 0.010811691298521189 -0.006015087237915242
9 0.0021833051801681846 -0.0010255092156570371 0.01561995248067386
3 -0.006652719639090979 0.0013117533647223167 -3.946626835380848e-05
6 -0.02216714847681725 0.02626373568061086 0.0027165801736693616
5 -0.003821849554207932 0.004131542089189715 0.010478107140830395
1 0.023097688921861665 -0.018538775103458797 0.011115404307954916
2 -0.0011971114094515205 -0.0065446496792867515 0.0030592189187473415
7 -0.005430303328435314 -0.001814923229137101 -0.005225407141792847
14 -0.00483517560998829 -0.0016855656767488345 0.0018324750935097508
19 0.01814189240248401 -0.015893408035813364 0.0048183269680748325
30 0.0035172277208569804 0.0016932869190081686 -0.0061747210877011365
138 0.010338096979521615 -0.040257974045531164 -0.00342798317153659
137 0.0018226754926194421 -0.002433965872549444 -0.00092297219801291
29 -0.0002611901724009892 0.007334881609186092 -0.004217713007154574
135 -0.004648036010031455 -0.010185809301886554 0.0038137712512714955
131 -0.01464951450282204 0.009223860136042945 0.003430175270906319
132 0.0010328585972509642 -0.0023811902191093717 -0.0005505460244175823
136 -0.005911564108146872 -0.0012796489722622705 0.0027007137477486703
26 0.007494750593316361 0.009495340050553414 0.008264750036542878
28 0.0013663158062193342 0.013074889575491638 0.009431264795820828
31 0.009845930045153968 -0.015682483846159927 0.014837634359313677
34 0.012479083385811638 0.000376634862115806 -0.03291459295218928
32 0.004581408730184894 -0.007077711132085779 -0.0009396691204414327
35 0.008649322456647617 0.0023419511975636374 -0.003383838418260226
33 -0.009199334014277376 0.0018172997882746097 -0.007687385295323818
27 -0.00792804453941601 -0.0021289524919841873 0.00634125374186972
25 -0.005096566788153311 -0.0024355787739602512 0.006028164952679599
23 -0.0031866811518219563 0.0021863564942546255 -0.002435519115223647
21 0.016440139182104237 0.006568340299813994 -0.012638384321443097
18 -0.009578269685745463 -0.027239799778682607 -0.0223095215377831
15 -0.016268665824590862 -0.002849885366663603 -0.01531936039747794
13 0.009966672374552751 0.01735966241593476 -0.006266999356079122
36 0.0007183030822254184 -0.0006834118547876739 -0.005544773540293872
38 -0.005462437561137845 -0.006243431416815715 0.003524455925416892
37 0.03018129525824079 -0.0006399296412838917 -0.021503686656265772
41 -0.0016837791052614441 0.0011035000860229913 0.010169628062326344
39 0.0049628070111273955 0.006446484686000268 0.0028670603367973494
40 0.007963145545488626 0.0009945449256815214 -0.0009890523850696693
42 0.0003714769935551971 -0.0013476647540344856 -0.00028109304828540996
47 -0.002465848646270835 -0.006855986481085145 -0.0011182806731230665
51 0.01253072977870426 -0.005048816536382261 -0.033154523750905995
45 -0.03326448629366315 -0.01446247255768776 0.011711797013950241
50 0.0027619459136351433 -0.011687317860494305 -0.0004821339135264105
49 -0.006190535188601076 0.0004626867092048178 0.00013646589744805028
46 0.0003045111248006012 -0.0003487890419323114 0.0029047306730515293
48 0.012807658834330497 0.03064166961901694 -0.0008461710600551134
44 -0.0004619014007649956 -0.0007479635650525448 -0.004544618623885405
43 -0.0012243468731482 0.000868649650319515 0.0007033797097711718
52 -0.004184385984315763 0.0012120103549883004 -0.012373479205382596
53 0.00795922166000575 -0.002001517573030951 0.005590549134119645
54 -0.0025518787601224997 -0.0024747496607279347 0.0031227079854353637
56 -0.00022962160076637117 -0.0032308374493403816 -0.006761577072778235
55 0.009370035574510674 0.0027639261402227044 0.001372665356538459
57 0.0040258342668481086 0.009095609839363267 0.00322255748069272
58 0.0064606693290538714 0.0028390160212144167 0.002661574337891592
60 0.001787305388895447 -0.005322364555028333 -0.0007337520032733875
59 0.003624496318708894 -0.004160199276301579 0.0016114393342697183
62 -0.0197271225955438 -0.010986458840576018 -0.005314304570689693
61 -0.004776781854965292 0.002627582214098552 0.0003021969157327254
63 -0.001258441380494051 0.005039623534216214 -0.0027109286128926264
90 -0.00041185730148835144 -0.00824764188218396 0.024436862675494737
94 0.007346037509457486 -0.0019192729803819823 -0.006330513561344393
92 -0.003211999036421754 0.0014412573913186563 -0.0013922294911080056
96 -0.013454871374597718 -0.025575106111493606 0.005253953426213541
65 -0.009116721034719808 -0.022219998775383883 -0.002838352722645593
64 -0.00793588323813099 -0.0009249830354520188 -0.007307832406004636
67 0.0026072938161687542 0.006386261006213041 -0.014562903469513867
66 -0.0009969915870952802 0.0004136027683078382 0.004000471517487871
68 0.0006389842294003227 -0.026583782075921228 -0.0044721030842373825
77 -0.0015348392463138847 0.00035345529566887276 0.0023096418789728076
78 0.0352976581308579 -0.01629014086065771 0.004227604634035705
83 0.0012242582750510076 -0.0008422463323832783 -0.002222998976665806
88 0.021291750472788525 0.006459907627012666 0.0029749457063854225
81 -0.004722088515733821 0.007142378641336219 0.0009735074848311083
75 -0.016065551820451038 0.0010701308622626832 0.01901885701813304
86 0.002197080263935138 0.015602521980110568 -0.004169227911222124
84 -0.0287417915397765 0.012207960223432525 -0.009257222153672971
70 0.005740509563180577 -0.002000273424826619 -0.007395225488359489
72 0.00170703261970193 0.0016705530197843764 0.007703463024074098
99 -0.007468157545042827 0.0030726573140782204 -0.0034519702014217703
80 -0.0021779054507558774 -0.008510200429345116 0.007056626190681316
98 -0.006026185352678627 0.006777457889799409 0.0024422028092131827
87 -0.0009178864680536883 0.0020140076992920847 0.009711596867481657
89 0.0014479661611871285 0.007208268481812928 -0.009133990136899006
93 0.008470886637368138 0.003812800330238619 -0.0006116806530278143
91 0.004341820682878983 -0.009763271860012895 0.009131780386134285
85 0.002036608443396985 0.004521739418040449 0.02781290324295173
95 0.005530979996201512 -0.000521500183540075 -0.0009787970138108535
82 0.02761204006196026 -0.029091058944702385 -0.018834732675455688
97 -0.02809227642023437 0.0024523608232112 0.004719675047889683
79 -0.003005620407394745 0.000649195178919337 -0.00145079635322894
73 -0.021660287524277386 0.02031389891128692 -0.0073379855916322085
108 0.0019274099131698192 -0.00018379341500970398 -0.005244864527412775
110 -0.002525077910113409 0.0017916889637747604 0.0053390834917455485
101 -0.007316721874672217 -0.003711105199283488 0.002750445347055781
104 0.00034130035756179463 -0.008097056071696786 0.003082196742375673
102 0.008942946417506013 0.0022320806299777943 -0.0023132867462416578
103 -0.015272139150176726 0.004411189928612915 -0.0012999535630427717
109 -0.0023048428052033247 0.0023717361970448355 0.00508569120405711
107 0.00021254972495945944 0.006641210684136556 -0.0051542194438078505
105 0.0034512686037276048 0.002097115714029224 -0.006621247256626625
74 -0.01769929826033737 -0.0020620694586980714 -0.0046422058989322385
69 -0.011062607524884365 0.007235686433524016 0.020380026320492756
100 0.013205033835899667 0.004321412715787151 -0.017997963365184104
71 -0.006756668997503085 -0.004396767285816071 0.006798027824617635
76 0.0016963556050557543 0.010266120452062653 -0.010167327058227899
106 0.005893964395182219 0.018222121514455812 -0.02010971950256972
111 -0.002629991570818775 0.00037130999874987556 -0.0021768325747939395
112 0.004394536011047534 -0.006947539762209086 -0.005702881185468196
116 0.005419867240984517 0.004442248740061556 0.028719853181952183
113 0.00018727483891412596 0.008948820982067254 0.0014654189727526014
129 -0.002470392921529906 -0.0016580368342877503 -0.0010428202975741995
133 -0.0045430560996659874 0.0027381354402936154 -0.0006189055905910843
114 0.004560665568565657 -0.003031322284251294 0.006263866564185207
118 -0.00452702045251079 -0.003753834295519563 0.00884367404687742
134 -0.03196636840642761 -0.0027357920301447876 0.002888788559988775
117 0.008682287781342593 0.0017275237928417325 0.009564555911663447
115 -0.02134001811063429 -0.007685655782176118 2.890178354295067e-05
120 -0.00442557557061892 -0.001439572930448284 0.0018018955704071913
121 -0.011352316307653283 0.005666696168343258 0.013164881432807075
126 -0.0030015923002267584 -0.0023521156409253728 0.0013358796198013783
125 -0.002168943088733846 -0.0038217938067041162 -4.493948066416035e-05
127 -0.00572736302726186 -0.0062441855992217635 0.006510816418154353
130 0.005840854668897636 0.006623190478209898 0.001236206232483551
122 0.005180953975448523 0.001462061122972025 -0.0009959279693735666
119 -0.00020155346852196825 -0.0002142975654198102 -0.008636214086635683
124 -0.00034234398384960904 -0.0001535015437216079 -0.005067015453486561
123 0.0033786842277892504 -0.0023627218198455143 -0.006204585634770892
128 -0.005140342989947112 0.009641345363579567 0.007391438374949574
