LAMMPS data file via write_data, version 2 Aug 2023, timestep = 500000, units = real

276 atoms
4 atom types

2.459291090993302 12.910205909007608 xlo xhi
2.459291090993302 12.910205909007608 ylo yhi
7.223886690197759 37.92225530979594 zlo zhi
0 0 0 xy xz yz

Masses

1 12.0107
2 1.00794
3 15.999
4 14

Atoms # charge

5 2 0.1506947384460806 9.555768494722585 6.2930729310253 10.484492061375706 0 0 0
7 1 -0.1035539619522523 10.024063398006001 5.862413714307572 9.583201315744638 0 0 0
20 1 -0.0111862287843202 11.504661699208263 7.50917098140421 11.382256043791138 0 0 0
24 1 -0.1137572697004476 11.045375748844023 8.865758857884217 11.701945302596693 0 0 0
153 2 0.1216327379428256 6.910729048724675 10.83436351055161 11.067319378110295 1 0 0
10 1 -0.01076952157265319 11.412157120698229 6.20064872099146 9.275512640762093 0 0 0
22 2 0.1217304053114876 11.170566905443806 9.683170304653109 10.978634891046473 0 0 0
15 2 0.1283654991707021 3.1058562798287834 5.554545106644638 10.940600453745413 1 0 0
17 1 0.01426187014758429 12.186345495622566 7.159785716290411 10.106286500942874 0 0 0
18 2 0.153834060750121 11.524228953991372 8.917912543053085 8.862649427783802 0 0 0
11 1 -0.3031743460280122 3.173566336966386 6.553082919476269 10.457484257939731 1 0 0
14 1 -0.2999069815824251 12.476400657834985 8.462320375469577 9.213689664588259 0 0 0
4 2 0.1341967925001045 3.777263101395693 6.423331636824013 9.540199628189278 1 0 0
6 2 0.1570013489769416 2.6049964809791284 8.191830874851025 8.302831841584988 1 0 0
13 2 0.1507718458589487 3.7217738058405754 7.220228820390762 11.15567975412343 1 0 0
19 2 0.1370153861893284 2.606904586270528 9.217599471084446 9.785105079622836 1 0 0
142 2 0.133682040505833 5.210408582884417 11.192280463033505 11.567393480477289 1 0 0
149 1 -0.3084704027137955 5.869141177099909 10.934005547068049 10.704526785971574 1 0 0
155 1 0.01338105858122781 5.781471626177355 12.023128388282185 9.536651448628604 1 0 0
139 2 0.1381873408687745 11.653207317882423 2.5557646709694826 9.792233947916522 0 1 0
140 1 -0.1510886627555254 12.45521052202717 12.518788951310052 9.228982313361914 0 0 0
143 2 0.1208875132989895 3.583436230734918 2.707286372678245 10.600553616484646 1 1 0
145 1 -0.1217713043885315 3.3516394394703477 12.610075731833314 9.681630438084449 1 0 0
148 1 -0.01323224996553465 4.421240350671733 11.954002806754296 8.9297714312458 1 0 0
158 1 -0.01798779824206514 6.1283914653541585 2.9381457640773707 10.009317532996025 1 1 0
160 2 0.1389220016521291 5.298466293724266 3.924826488813976 8.18799600561065 1 1 0
162 1 -0.1158937667066564 5.790939231681853 4.086784713642831 9.161012073598414 1 1 0
164 1 -0.1674473273512369 6.093902274966861 5.407641094303667 9.583669253616506 1 1 0
166 2 0.1620093317912751 5.848448578021667 6.236309713170597 8.916227443457599 1 1 0
161 1 -0.1103252792531871 6.805720679956853 3.203100463048633 11.279538616934103 1 1 0
167 1 0.2326160731753268 6.716732227452962 5.669489728363641 10.85607258451698 1 1 0
163 1 -0.1540145680594512 7.084265201166674 4.537914624469151 11.682873712369322 1 1 0
168 3 -0.5200121233048767 6.926183866944272 6.94689513423523 11.257350325296027 1 1 0
141 1 0.2547516347333874 12.126104380299514 11.756221705853742 8.04174104996697 0 0 0
170 1 0.2370776786822762 6.453958252272073 7.261994603944968 12.481655879822462 1 1 0
275 3 -0.5255869135309593 10.859751927678518 11.353328824242091 7.927658302465998 0 0 1
151 2 0.1448067939871536 5.549997648576351 9.941356448905527 10.322732742776218 1 0 0
159 2 0.1280386193680706 7.098082282853384 12.837124701613815 11.939324194069844 1 0 0
165 2 0.1677368709027121 7.596571839252328 4.7022184034815036 12.631902105329413 1 1 0
169 2 0.140612147982258 7.7255919224609935 9.034223278160955 12.582809534125953 1 1 0
2 1 -0.1646763750661357 9.28359034405067 4.999969778659056 8.748090035597667 0 0 0
1 2 0.1579231676346851 8.259137811055115 4.7496640706526625 9.017469729728528 0 0 0
23 1 -0.09645731839475866 11.302629178277845 6.479122764132115 12.391453318760098 0 0 0
152 1 -0.305525662951376 6.908079733642304 11.586269755532753 8.477692427891759 1 0 0
172 2 0.1657831874591779 5.083841612093726 5.5558360614334745 12.638838048498911 1 1 0
21 2 0.1330192394337604 11.625799208364178 5.456315334241956 12.1954346964162 0 0 0
12 1 -0.1020515486837299 12.010020719350491 5.572952275715297 8.084709005161711 0 0 0
144 2 0.1527609380378384 7.934846626888129 11.733889260453065 8.876681319302588 1 0 0
276 2 0.1472552988965898 9.106451619979175 9.485044205926995 7.731297141817075 0 0 1
16 2 0.1431046214030837 2.6108739586960827 5.783172362337661 7.837486807534598 1 0 0
3 1 0.2758468493739666 9.851171154522241 4.462462216128106 7.52471074450014 0 0 0
156 2 0.1431366980324502 6.822808429327006 10.51842545363987 8.189178366212104 1 0 0
173 1 -0.1391583943401138 5.407890904721528 6.48932903218824 13.104086475668016 1 1 0
171 1 -0.1484547471342589 6.919346895192895 8.498032720050293 13.086459891339835 1 1 0
150 1 -0.1081674518237169 4.0904730226722075 11.25788402658322 7.702847669065537 1 0 0
26 1 -0.1498298727807578 10.428263883582893 9.147037330969622 12.948924692598169 0 0 0
157 2 0.1445032550513874 6.841909972118121 12.19393061206878 7.553550646580192 1 0 0
28 2 0.1334572555732575 10.102377870370043 10.165032813451466 13.141429335744228 0 0 0
146 1 -0.1653682513633337 2.744842647218924 11.172503942049337 7.255196418898175 1 0 0
8 1 -0.1156485257736437 11.249094339960278 4.725427016478246 7.249650410855153 0 0 0
25 1 -0.1418454654901051 10.685979390899588 6.763344708975148 13.626512478632812 0 0 0
29 1 0.2697984796134443 10.229463574656101 8.107190124673355 13.938763319713184 0 0 0
174 1 -0.07939636648854106 6.3631004691736495 9.0066204793116 14.297126602803282 1 1 0
175 2 0.143063462908688 6.76619621454544 9.958074691172381 14.717709304280133 1 1 0
176 1 -0.03168225342519845 4.795116863123994 6.97798661606378 14.30572940834767 1 1 0
177 1 -0.05144230648446985 5.288319830191101 8.258646684984544 14.931918895242323 1 1 0
30 3 -0.515353071815454 9.708012912168826 8.460032598382739 15.11380347616976 0 0 0
34 2 0.1614171343949653 8.24522723708433 6.368063156286849 14.248118528707792 0 0 0
179 3 -0.4710164350157326 3.0519197922177423 5.420058342382891 14.863028281366972 1 1 0
27 2 0.1785619754287387 10.580034699160917 5.9482499168902265 14.35038130076483 0 0 0
31 2 0.1642192810756194 9.911819198250553 8.40946146741025 17.734430837409008 0 0 0
32 1 0.2583550360793875 9.15871471638771 7.489133400526146 15.889036610473838 0 0 0
33 1 -0.1401348441822943 9.296357615496243 7.602931127351005 17.334818492637332 0 0 0
35 1 -0.1340612652832258 8.352904927817466 6.4163201165181984 15.325598568185107 0 0 0
36 1 -0.07448385722019273 8.69251774500692 6.71118660726963 18.238465989388093 0 0 0
38 1 -0.02322495792601253 7.729115648902757 5.477321744635191 16.193073012813898 0 0 0
39 1 -0.03637791937185239 7.903946666638005 5.610733569156924 17.69456196563202 0 0 0
42 1 0.3956835317835515 7.1853223727378746 4.450317379823429 18.398321988462186 0 0 0
43 4 -0.4271030686652236 6.565867668747495 3.5317506325595476 17.305644203530992 0 0 0
40 1 0.4123265377529311 6.863027005315491 4.221046671305219 15.93372510186658 0 0 0
41 3 -0.4766775055226457 6.5260124473011745 3.8575279216751186 14.852683554829365 0 0 0
45 2 0.199532935364856 4.325496654806688 3.0386456677816063 15.69017631674641 0 0 0
46 1 0.1762925524576457 5.366967974876875 2.6746699497095747 17.584764681224268 0 0 0
47 1 -0.1060899510007365 4.237986364114105 2.5920983633866137 16.679566608150385 0 0 0
178 1 0.4114284265626311 3.623915036346956 6.427902920700689 15.127708143521161 1 1 0
183 2 0.1814393154928839 2.8575147080031797 9.136131524676953 18.488222695515468 1 1 0
185 1 -0.1432876900861935 12.790353371935065 8.145417750359465 18.544090790630378 0 1 0
184 1 0.1781503134024306 12.902325890554804 7.221672724674717 17.431390030157132 0 1 0
187 1 -0.1548343387691739 12.112893858776113 6.023066750475527 17.603710601594976 0 1 0
181 4 -0.4360563249857476 3.3680494515844672 7.437925681915549 16.29692372827237 1 1 0
180 1 0.394910841168381 4.465805815337879 8.52746326561346 16.19983260848914 1 1 0
182 3 -0.4693438195991111 4.733057498501838 9.41559948727155 16.980213893470644 1 1 0
190 1 0.1703829077966905 11.389022513219613 5.6292131749882035 18.77340034653391 0 1 0
186 2 0.2293294437330577 12.130956915245577 5.335113664055328 16.775954885266643 0 1 0
51 2 0.1601376365548855 12.621886572981996 12.400684777199498 16.393682830502904 -1 -1 0
50 1 -0.07102775181854855 3.018352972935969 12.43296126550883 17.083922893981946 0 -1 0
193 4 -0.4352183509711014 10.710424809056184 4.311409138605637 18.888568206852614 0 1 0
192 3 -0.4551506679062284 10.420000887151284 3.519500734241754 16.515216622794494 0 1 0
195 1 0.3805637022748433 10.246270762342231 3.361175057803017 17.72118212166785 0 1 0
49 1 -0.1432215796861643 5.177469168945977 12.467620087328653 18.839675583976316 0 -1 0
53 1 -0.1138801556552289 2.86922686224304 11.865923806727416 18.385194886904237 0 -1 0
56 2 0.1780044231458054 12.34936088335413 11.430635802222898 18.629268343374324 -1 -1 0
198 1 -0.03984969829008417 9.527563548202831 12.624952359770427 18.32869213847138 0 0 0
200 2 0.157106265106367 8.824483344840406 11.346592120939029 16.675853392529426 0 0 0
201 1 -0.06037465303669959 8.89704269829199 11.467462667261804 17.75267421955609 0 0 0
206 2 0.1508908660194255 7.902717054780692 9.564555516563134 18.140582319495195 0 0 0
204 1 -0.1617308685699216 8.376181703797343 10.453193325801001 18.59187805388218 0 0 0
52 1 0.1723419310898248 3.9663992910124106 11.85793452193606 19.320666130723705 0 -1 0
37 2 0.1639407104198744 8.813125218496008 6.801049302337815 19.29517658310928 0 0 0
216 2 0.1785822682584091 6.1282889398934115 9.440157524603123 19.481366270376377 0 0 0
48 2 0.2238223643305148 6.062105120139015 12.496878883719736 19.471432125762668 0 -1 0
220 2 0.1759406890759115 4.4802618398029495 4.4802482508685415 19.656183047006216 0 0 0
44 3 -0.4632429201581986 7.0909073622347 4.3414785741697095 19.588660386466344 0 0 0
212 2 0.1551279909820532 3.3091322267147945 5.810155058472301 19.616816836559508 0 0 0
226 2 0.1429329223195813 4.34728162344587 7.73693050870926 19.878062796918258 0 0 0
188 1 -0.1039036686563737 12.070646948694726 7.830273471539908 19.709478053893463 0 1 0
191 1 -0.1435337454733809 11.399447897470008 6.585891636428941 19.8419875452865 0 1 0
199 1 -0.01978032770682108 9.530389096290188 12.761033797628391 19.81975217719524 0 0 0
189 2 0.1681099220454864 12.036215720225098 8.546028637836372 20.540247478235756 0 1 0
205 1 0.2719902613199908 8.49311085396348 10.521971513686369 20.03885584283492 0 0 0
197 1 0.4218594888426978 10.191675199032176 3.64953100843018 20.208722005844272 0 1 0
194 2 0.1760434502851486 10.879087692146143 6.380099063953812 20.758757105710387 0 1 0
196 3 -0.4855786164809345 10.29587877383554 4.062531071530586 21.32144889966524 0 1 0
54 3 -0.474807479972799 11.814840636153289 11.096755768180767 20.994807858484926 -1 -1 0
55 4 -0.4551042063604126 3.8117151447074953 11.30072431035595 20.706897934004267 0 -1 0
215 1 -0.1407421943711761 6.336793800155556 8.593236494957988 20.140664491086575 0 0 0
202 1 -0.06139104220056521 9.00420373187634 11.715254846930605 20.65615765065059 0 0 0
224 2 0.1852429510380116 5.770115242023853 3.8036839666048508 21.86656143933692 0 0 0
203 2 0.2012702197534835 9.053883978355675 11.82478400113056 21.739521880415648 0 0 0
208 3 -0.4881861488917272 8.5420934373691 9.4229319953387 20.851297582874473 0 0 0
57 1 0.395044729905232 12.900438533003971 11.25132839776793 21.435970799324352 -1 -1 0
59 1 0.3683553022447789 4.913738501422953 11.497607346417182 21.855220963404513 0 -1 0
60 1 -0.06715534407899752 2.738048992304279 11.46384093530854 22.946557357765712 0 -1 0
61 1 -0.0706592733778513 4.193364361422159 11.6027166235083 23.153958342175443 0 -1 0
64 1 -0.1260055519321146 4.712205786639036 11.874181641145922 24.473607560928226 0 -1 0
58 3 -0.4559698693196144 6.108077486366357 11.593609788702977 21.681181813581013 0 -1 0
65 2 0.1705800373739606 5.7948027662406325 11.996918098943416 24.642575526898234 0 -1 0
63 1 -0.09489206888396029 12.25589543056208 11.540302776784594 24.091116006156575 -1 -1 0
228 2 0.1536048990448564 4.377103065191487 8.238096482833162 22.455896555659358 0 0 0
62 2 0.1461072690851963 11.171312975412041 11.387704588189461 23.94423519007988 -1 -1 0
207 2 0.1657936207228657 8.831726881216756 7.235538352802874 22.17031367234103 0 0 0
209 1 -0.1296610900492675 7.8594701177463975 7.33159000097733 21.678435358080712 0 0 0
214 1 -0.08452480622478795 6.851975423744817 6.3827410670921285 21.9176439812312 0 0 0
210 1 0.2632590900727959 7.61521324687851 8.485926405016698 20.81343063558686 0 0 0
221 1 -0.105620534671218 5.320818876407712 7.633051299063928 20.363867815420548 0 0 0
218 1 -0.0006180240000316604 5.540479228811858 6.505162848260374 21.29021583136349 0 0 0
211 2 0.1383196651867271 7.046628698112321 5.546185206054142 22.592564083310336 0 0 0
225 1 0.01149909048479892 4.404353039851381 5.590925383246635 21.612351248807315 0 0 0
217 1 -0.2974661067813265 3.7339285636816753 5.02195381193031 20.271671948118723 0 0 0
213 2 0.1328704587202253 5.287808919873214 4.526640272621107 23.42103111240202 0 0 0
222 2 0.1419809306541911 4.119819423180119 3.540548158686227 22.533631237324848 0 0 0
219 1 -0.3070981852165596 4.922992605166293 4.2927230015395414 22.395584045673523 0 0 0
230 1 -0.104017644850301 3.547417814484501 7.657144534991506 22.86998060590959 0 0 0
227 1 -0.01300534105546326 3.3877568774273197 6.25227811213801 22.482167892733898 0 0 0
223 2 0.1565606799231376 2.9304353323471717 4.283391111727174 20.485582930277964 0 0 0
234 2 0.1667135452642149 2.7993775209360847 9.311076472099794 24.047400230038225 0 0 0
232 1 -0.1606870999592911 2.6534393410118535 8.266826549987115 23.775062297629784 0 0 0
231 1 -0.1063017745476493 12.680960266439785 5.537088373182545 23.02811361706403 -1 0 0
229 2 0.1477662699262978 12.512483985875086 4.49808383878451 22.72921215959893 -1 0 0
236 1 0.2635756827838079 12.040887890822647 7.50943927854417 24.406882881995386 -1 0 0
233 1 -0.1480259362370414 11.796530616298917 6.1637906102571955 23.937392563289308 -1 0 0
235 2 0.1450491595770441 10.951704648126247 5.610916568905755 24.333231638451604 -1 0 0
237 3 -0.516801295126246 11.392087543829017 7.942734763992383 25.487619547915557 -1 0 0
66 1 -0.1667898284789818 12.815552500902875 11.811837246070608 25.37114359686309 -1 -1 0
67 1 0.2531365448760681 3.7888493446065947 12.050806216096156 25.575157361228303 0 -1 0
241 2 0.1718359898684184 3.699049160928272 8.075780108134337 25.729906066710715 0 0 0
68 2 0.1351880237073665 12.113502712112464 11.848860802495055 26.21172902421889 -1 -1 0
78 2 0.1303931300938737 12.539714608079256 3.5591644383687475 25.97276340480027 -1 0 0
70 3 -0.5001914527501186 4.304024980502836 12.54823004963824 26.73756650539519 0 -1 0
69 2 0.1829745336093725 4.904560799206832 2.618995592526766 29.226078569705496 0 0 0
96 2 0.1790816227432908 7.771144018978225 6.956120770861027 27.90772273881638 -1 0 0
72 1 0.2714830821368014 3.569397877130667 2.9120566798876393 27.484525042835198 0 0 0
71 1 -0.1066396508566763 4.01650093789242 3.1343338338977755 28.840973944651594 0 0 0
77 1 -0.1693157352636586 12.872664887763863 3.648323847738152 27.010023013338195 -1 0 0
90 2 0.1339778886800029 10.247130081737133 6.98340703043427 28.108888813693877 -1 0 0
83 1 -0.1100031835854044 12.157071259167708 4.520163787237253 27.867611116567613 -1 0 0
88 2 0.1233084274786555 11.285432961279543 5.054957161487239 27.488713558551957 -1 0 0
76 1 -0.08709155216407467 3.3121841100003433 4.009520175965443 29.71576431302739 0 0 0
73 2 0.1369179309615161 3.666574558271324 4.147947452435331 30.745716151242494 0 0 0
80 1 -0.004909041361407442 12.57331687074252 4.72288477717987 29.256780331147315 -1 0 0
92 1 -0.1186570313632999 9.665132588010547 6.387035647135647 28.825632216279825 -1 0 0
94 1 -0.1479525534447906 8.245171624156256 6.36511409714544 28.701883369319567 -1 0 0
239 1 0.2403765861014214 12.097202550790675 8.664643545152055 26.39051177468976 -1 0 0
238 2 0.146268381269738 10.280213654122765 9.415925217086453 27.32284604267418 -1 0 0
240 1 -0.1689876929737159 11.37867048694343 9.396179634686298 27.428154782846708 -1 0 0
245 1 -0.03456695512765848 3.7789234994399448 9.277569336486229 27.52044969015566 0 0 0
242 1 -0.1463347245270831 3.09371854419827 8.616457472325251 26.47003365500422 0 0 0
87 1 0.006076776262883901 11.834118358392534 5.6944691428059695 30.118975311390553 -1 0 0
89 1 -0.007962684766862942 10.35486607538898 5.662948323329328 29.87920289486559 -1 0 0
98 1 0.2491163358340814 7.436830292173668 5.681615043847324 29.67773569255772 -1 0 0
248 3 -0.4576979857820851 6.143320250896748 9.081519756827426 27.0606964328983 0 0 0
247 1 0.4165731900499564 5.268642543065086 9.433967558883836 27.80078104282963 0 0 0
243 1 -0.0975361850862148 12.00443406501121 10.017140298873723 28.51433770247458 -1 0 0
246 1 -0.0558264781916912 3.016350899110132 9.969679977135282 28.62659970332076 0 0 0
254 2 0.1702157669075189 7.573848857953531 11.050409839619736 27.644087989561005 0 0 0
250 4 -0.4200488761025215 5.4342078306559305 10.134430828265891 29.17950736801226 0 0 0
256 1 -0.1208719507071623 7.721180829008939 11.23969098357592 28.695164396394183 0 0 0
259 2 0.1063516813957625 9.737674551527597 12.153948316084406 28.45514694290446 0 0 0
249 1 0.4042663311838467 3.9747166851388065 10.477984443661304 29.678691440074463 0 0 0
252 1 0.1730255089314902 6.6721664627124815 10.873788395842709 29.613514427627834 0 0 0
258 1 -0.1078987578842302 8.944814724082566 11.872020628955847 29.160713846795957 0 0 0
244 2 0.1609619240107797 11.39692219452533 10.520622123263653 29.273091956947372 -1 0 0
261 1 -0.1064385211367589 9.13232571280421 12.103448577647987 30.570027558814107 0 0 0
99 3 -0.4911538822228493 6.228153214896563 6.1684116300057035 30.02158387917244 -1 0 0
84 2 0.181019588162712 11.881306465721782 7.938556453300545 30.312104777779922 -1 0 0
81 1 -0.2949851297371535 12.42617857925602 7.149424366833299 29.751175824921404 -1 0 0
75 2 0.1551172731424798 12.352078206378577 7.340711871944518 28.659213986789037 -1 0 0
93 1 -0.107998673726033 9.519368408129647 4.853917248306672 30.75490164663751 -1 0 0
95 1 -0.1420286414961465 8.101688194131551 4.8285971771521705 30.6253526338537 -1 0 0
86 2 0.1603266494177916 3.0504936039140036 7.212166063855343 30.044346157804434 0 0 0
255 1 -0.1437408899965104 6.918421796304095 11.204387443090345 30.980217739196416 0 0 0
251 3 -0.4686087536528875 3.669830283616645 11.023714327351092 30.68588519793802 0 0 0
103 2 0.1877246151286064 7.675661431208595 8.432694762422978 30.17166957805426 -1 0 0
104 1 -0.1100431130080976 7.462616111598411 7.886003310108722 31.103475049776776 -1 0 0
266 2 0.1712289447307014 10.103958827252958 12.544164290105138 30.920015887714563 0 0 0
101 1 0.2481465693882099 6.405797094426585 6.913651746630172 31.15490299767614 -1 0 0
257 1 0.1890428570949421 8.137983164178475 11.760002920809544 31.55450642470851 0 0 0
79 1 -0.3008344040833621 12.153379419128555 5.493728550499034 31.662652778842723 -1 0 0
110 3 -0.480700334231817 10.202925069178274 9.37103382521128 31.528726370053427 -1 0 0
97 2 0.1571583164176084 7.512199405858648 4.2245888115497126 31.32367751841963 -1 0 0
91 2 0.1588727811794104 9.977240431686534 4.255331906728137 31.548896662716054 -1 0 0
253 2 0.2235296494234444 6.10849128090261 10.950072525434488 31.697611504763334 0 0 0
131 2 0.1860326745053102 7.969563269967497 6.18884549646503 37.86014218751495 0 0 0
74 2 0.1395068307838072 2.729095142754423 5.838661502027042 31.907372347698676 0 0 0
154 2 0.1377866533483882 4.878903362331731 10.77145133576015 37.811827074608246 1 0 -1
122 3 -0.5076142025960626 5.582991217278881 8.061038202098393 37.691379535474915 0 0 0
85 2 0.1713918487977114 12.06727100429127 4.435701284022712 31.993517788202976 -1 0 0
82 2 0.1680502345799463 11.465721003419599 6.099531358066097 32.29404665542022 -1 0 0
274 1 -0.1329826114871627 9.217787497145263 10.067639854083996 37.49690854719944 0 0 0
273 1 0.2570552924628391 10.351804625724277 10.98206008019137 37.42423816620472 0 0 0
147 2 0.1461326508091935 2.5026965862974784 10.62284313223536 37.01659940684269 1 0 -1
137 3 -0.4831220807839183 9.134862987241034 3.7593748734477463 37.335765755007586 0 0 0
132 1 -0.126480391715584 7.339282929128901 5.457543129276133 37.35632802312881 0 0 0
135 1 0.2643738692863533 7.877108313445838 4.142692114965685 37.05429724134348 0 0 0
100 2 0.1399648534164923 5.122587199959277 5.693234488433323 32.4826094546563 -1 0 0
102 1 -0.1441184443628301 6.001400894972283 6.333271846120874 32.4297171455885 -1 0 0
107 1 -0.0326734081864429 8.310817444226505 8.025133785659285 32.26047214112812 -1 0 0
272 2 0.1768442646793763 7.426758852271628 9.298168219568394 36.53600427511046 0 0 0
109 1 0.402176694752051 9.64066414301772 8.81042483799719 32.41022782813528 -1 0 0
269 2 0.1711818743250111 11.527845598817281 12.322795855388545 36.149960958372375 0 0 0
105 1 -0.06963253560898995 6.814963194116919 6.491266784956168 33.590384300516874 -1 0 0
270 1 -0.1189898119705789 10.64192127766475 11.685206981925509 36.21136138615201 0 0 0
271 1 -0.07195657549543838 8.28099634654587 9.95732463574543 36.43670719085809 0 0 0
9 2 0.1876540485537013 11.720711437906294 4.295059256999102 37.05199787151619 0 0 -1
108 1 -0.03938169429333291 8.016559570105445 7.280894722264699 33.50999414365475 -1 0 0
106 2 0.1632843472055718 6.545787636776992 5.987547923064216 34.519070480316486 -1 0 0
116 2 0.2081269275138124 11.966710818538951 10.496586446919924 33.04409365208623 -1 0 0
138 2 0.1620399135761429 7.446565754389364 12.658728013294049 36.06484630245362 0 -1 0
267 1 -0.01963165724895162 9.718096454600932 11.581876232673457 35.106260502462995 0 0 0
268 1 -0.06482728719837638 8.474639336362273 10.739741619368786 35.246659056565534 0 0 0
111 1 0.3929946278360268 9.125828081388187 7.540057203066823 34.512776552186736 -1 0 0
112 4 -0.4226506508832636 10.14073790564224 8.551628379688252 33.87081846988269 -1 0 0
260 3 -0.4670687175301129 10.610596857703806 12.886479830611037 33.24914162114807 0 0 0
263 1 0.4014301794495086 9.689587945956346 12.227461474012632 33.69415681817918 0 0 0
265 1 0.4132125177984091 7.59048540353041 10.894436471749096 34.00783869561707 0 0 0
264 3 -0.5073509302705902 6.534898334039431 10.400981432193962 33.90082298885258 0 0 0
262 4 -0.4482732808838267 8.342142623997669 11.837369784129486 33.02074745949389 0 0 0
113 3 -0.4460437482344006 9.217298847470058 7.027139192955994 35.59214256569426 -1 0 0
124 4 -0.4523675322627793 3.810598731254821 6.868092898954355 36.459718375150274 0 0 0
125 1 0.3746614898911399 5.2122526757108325 7.0650670029111255 37.11756329119993 0 0 0
127 1 0.365528732102555 3.8414127483564604 5.437402634179321 35.850949922757835 0 0 0
129 1 -0.07333422856019794 6.015461777102274 5.7764963904247075 36.954695703874265 0 0 0
130 1 -0.0783506481173885 5.1929770001344 4.8038237918836515 36.22807355957812 0 0 0
136 1 -0.1470022436547255 7.040500480300597 3.1869137573297537 36.32203391883995 0 0 0
133 1 -0.1028135319577566 5.716525244669077 3.486969467316665 35.90660010777874 0 0 0
134 2 0.137703949954274 5.126852390989673 2.7489704514788147 35.35551243377934 0 0 0
126 3 -0.4647554517334824 3.0307068771014167 4.923479995185967 35.11026810028951 0 0 0
118 1 -0.1126458401630879 12.370259844159058 9.807637255981366 33.77419696398242 -1 0 0
117 1 -0.1423008829452233 12.221402979573709 7.887462120669434 35.24365406821076 -1 0 0
119 1 0.158678037143776 3.1241812255276766 8.002675353537489 35.667220639670965 0 0 0
120 1 -0.08548385346625612 3.2662814767133823 10.008842076546301 34.227457044194495 0 0 0
123 1 -0.1255588385930707 3.845330971605193 9.124314390364976 35.180739701727255 0 0 0
121 2 0.1654693215095331 3.8554282151216777 10.851952988858603 33.82482714856917 0 0 0
128 2 0.183907418543908 4.891246328214779 9.294185434537313 35.50027568337365 0 0 0
114 1 0.1754065579289093 11.570964678878797 8.748903752827143 34.2948443930961 -1 0 0
115 2 0.2152103804562625 11.63901259651385 7.048645909670523 35.64959479181066 -1 0 0

Velocities

5 0.0025762438303724967 -0.002690213184515072 -0.0045301359965405205
7 0.0005335077551823091 0.0007067205728749532 -5.588468026129433e-05
20 -0.0002907742712983484 0.0007763983752206009 -0.0004914771262796077
24 0.0005959131138856062 0.00038446831203608247 -0.0014798414477455637
153 -0.004068676824353562 0.00042559718244374273 0.004818269321600332
10 -0.0023801295791407687 -0.001182397110906025 0.00036954435124528234
22 -0.003186202511809752 -0.0010419400612569159 0.004604040943942359
15 0.0021244808638026607 -0.0013593941049325157 -0.0004350310898995211
17 0.0010186369124998544 0.002731358556769751 -0.0017749300686391801
18 -0.0007727263294210336 -0.003019498650974491 0.0011951337291868282
11 6.0875633796208064e-05 -0.0010220378466819508 0.000863108157279584
14 0.0006614892767015879 -0.0027096600124480925 0.0019679417044139017
4 -0.0023716601638374933 0.005080288791587463 -0.0016493025297926514
6 -0.0035737016589972716 0.0005616339115920745 -0.007591826108434095
13 -0.0007575055207766086 0.004613432748470256 -0.0032832111010251425
19 -0.0030897365605398897 0.007926036344086085 0.0012237921413637061
142 0.0033706873307562165 -0.00545379329555076 0.0018822960741316105
149 -0.000135071759387731 0.0027880340593969682 -0.0036838110175831055
155 -0.0008222531068401996 -0.003422256177576992 0.0021718845805926822
139 0.009076903533604372 -0.004757381366561819 -0.001820018322982412
140 -0.0016773403201692184 0.00020030831136527748 5.629485541746929e-05
143 -0.004203273534988137 -0.0038612717245726453 -0.006637585017812065
145 0.0005107463051884753 0.0006046095703603099 0.001080733645441886
148 0.0023778342319149266 0.0015417529014595855 0.00338374813234631
158 -0.0030429323946363825 -0.0011202218354273148 -0.002638333366001638
160 0.0009314251960494814 0.002852218490963245 0.0020806015721721825
162 -0.000303277600060416 -0.0009539404210265669 -0.0006436058163963953
164 0.0003924654018414768 0.002143482716058372 -0.001264182642577848
166 0.0033101869640407185 -0.0027307573596494273 0.009505519803859464
161 0.0013388520212560071 -0.0031128720710238045 0.0018067698326572792
167 -0.001157974458665399 -0.004081237007198281 -0.0005148011436227872
163 0.001962519401621082 0.0029023573799046745 0.0024427882715628057
168 -0.0007460052365127948 0.004113881461994647 0.003094456307082857
141 0.0013644805649893448 -0.0009685063553286387 -0.0020390835720297913
170 0.003933300094951247 0.0005111426396739202 -0.0045505380231288155
275 0.0015920858851150954 0.0014296509936258326 0.0028792312861584866
151 -0.0017725033192140928 -0.00011644891004820777 0.005148155891837301
159 -0.0005943652122537963 0.0027897719022313113 0.003265510796675053
165 -0.007042040069110525 0.0055275142269399806 -0.007716101606240806
169 0.0006551275386633884 -0.0005878998044100421 -0.0011507098914012336
2 0.0002302417525875268 -4.9219754263044435e-05 -0.00044776081260430785
1 0.00517682568792929 0.0026714411868819926 0.0023917214015349427
23 0.000762324509898344 -0.0025260761108568245 -0.0012127227868160143
152 -0.00015460195118355174 -0.00020114078731532973 -8.970229118502546e-05
172 -0.005909679349652275 0.0010405395286623756 0.005745381623533597
21 -0.0023254154016013836 0.007765590782962044 0.0021804043602600335
12 0.0007944855257569597 0.0005619995566853535 -0.00039007723885421864
144 0.0007446455874815844 0.0036257493679272192 -0.0024893719716530286
276 0.0037476624546304914 -0.0028456243042007776 0.0022983701216511758
16 -0.0003933566800057209 -0.002267735240863747 -0.0032052508621020054
3 0.0017276986874778673 0.0004815324672906213 0.0012869097845039858
156 -0.0021648129452255943 -0.00032439108925894924 -0.0013560580066228458
173 -0.0014179602712508501 -0.001661666684263606 0.00045687590048188576
171 0.00013098282205374252 5.210943754131933e-05 -4.664441664322478e-05
150 0.001337173670168953 -0.0014288733395740653 -0.002665074297119937
26 -0.00028253346902340395 0.0014964261612084976 -4.699171034212875e-05
157 0.007906691794730825 -0.0021211519892239566 -0.0039099080951750815
28 0.0015951626158830822 -0.0018326887676651958 -0.004539176899930084
146 -0.003573222034654466 0.0009430806456907475 0.0009591121707425189
8 -0.0008646128071453221 -0.00011190388924988276 0.0002617003541546527
25 -0.000601883600292442 -0.0005458441269818702 0.002174180491725935
29 -0.00048231886043778534 0.001147783557588816 0.0016268573291013855
174 0.0017066993571785757 0.0017381047176559003 -0.00031506993034330154
175 -0.0041892262246769 -0.00490134113749263 0.00023920274206206419
176 -0.001982999134347742 0.0020853190387687404 0.004303650503595548
177 -0.0011787634727521016 -0.005090378201264625 -0.0036539498878081
30 -0.0003006806166799485 -0.0015786744083105704 -1.481748274008425e-05
34 -0.0016539443446942244 0.0006808193382737666 -0.002796940279848686
179 0.0003873492898541159 0.0007529339673335056 0.0002923567342432839
27 -0.0002593267960615004 -0.00040812208591288165 -0.0026850348794130526
31 0.001713984297607509 0.0036271604389156134 0.0025894131558387968
32 0.0026082175140036135 0.003773275158682328 0.0006923696816334865
33 0.0014179580105698943 0.002213378283742038 -0.002467774425705977
35 -0.0014486944496342068 -0.0018895695613706583 -0.0015382082719001303
36 -0.0014519629539809155 -0.0021474025903743736 0.00369371550089635
38 -0.002596604224460292 -0.0037408224697694863 0.001379219072698923
39 -0.0008924219978656267 -0.0014420625323827267 -0.0028867490969334184
42 -0.0025809991439890395 -0.0032914061354971684 -0.0009603114108434836
43 0.002809217809671835 0.0032725620994158247 -0.0015769386436321302
40 0.000751431674883477 0.0010554142250990097 0.000780105599058353
41 0.0010441659161649966 0.0010306381973121629 0.0019628568177318473
45 0.0013579353512474016 0.0007129586392638253 0.0012015621110899725