LAMMPS data file via write_data, version 2 Aug 2023, timestep = 1000000, units = real

276 atoms
4 atom types

2.4765983104949267 12.89289868950543 xlo xhi
2.4765983104949267 12.89289868950543 ylo yhi
7.274724670728354 37.87141732926853 zlo zhi
0 0 0 xy xz yz

Masses

1 12.0107
2 1.00794
3 15.999
4 14

Atoms # charge

153 2 0.1211485736238059 6.909877005044769 10.815866455936117 11.14317084456123 1 0 0
15 2 0.1278398509632765 3.1281752834013936 5.553284864056287 10.98195863377627 1 0 0
11 1 -0.3032160286877488 3.1850712462999535 6.550017167405565 10.495162240736693 1 0 0
4 2 0.1341328674646174 3.8050090628581703 6.4386103822081235 9.588412517627345 1 0 0
6 2 0.156441219566843 2.613023362080947 8.211919652805168 8.346071593369818 1 0 0
13 2 0.1494659044983659 3.7513718640474902 7.22163415267228 11.173316490893809 1 0 0
19 2 0.1359044777185089 2.6148138538863903 9.219314050266535 9.809632207811013 1 0 0
142 2 0.1324166584514505 5.229105258122099 11.170941452062511 11.612434673102472 1 0 0
149 1 -0.3095432946913332 5.879591309208493 10.91715373618416 10.7506336100672 1 0 0
155 1 0.01250426438005025 5.791194608260737 12.011184573242158 9.573294171813275 1 0 0
143 2 0.1196426173890928 3.600348753120141 2.7287527874219544 10.638799033829759 1 1 0
145 1 -0.1214893345095676 3.353333292140883 12.58344297808623 9.720408096443974 1 0 0
148 1 -0.01453311432567627 4.433744418955732 11.936357185303766 8.985195293140272 1 0 0
158 1 -0.01726621750956008 6.13352044697538 2.961068382097537 10.055530454486021 1 1 0
160 2 0.1391829022985427 5.308075057178746 3.9014055258018745 8.24864351180929 1 1 0
162 1 -0.1161819656009391 5.80652802918498 4.079529934297555 9.21995867431442 1 1 0
164 1 -0.1636234723351218 6.104036546260529 5.414636540251269 9.621014406583944 1 1 0
166 2 0.1623254488133028 5.85269496168417 6.265787232427549 8.968471006991905 1 1 0
161 1 -0.1116050812450807 6.78839908112974 3.2221397975546724 11.308232625878961 1 1 0
167 1 0.2094415958124858 6.702069660066293 5.626679046855315 10.879559336411655 1 1 0
163 1 -0.1503283195832973 7.079609739338669 4.553791126639558 11.723491516278884 1 1 0
168 3 -0.5147829272624902 6.937184075796109 6.976280312830488 11.29627124125631 1 1 0
170 1 0.2521367788712116 6.482402559361123 7.2464854170615425 12.487864555258309 1 1 0
151 2 0.1442537753139117 5.53904613783971 9.922386055489499 10.39618988254507 1 0 0
159 2 0.1285062056481184 7.048866883693353 12.820578268535938 11.97707710603905 1 0 0
41 3 -0.4821442502895172 6.539530164816587 3.869037040335499 14.895526524981623 0 0 0
152 1 -0.3060631834094927 6.904675619011995 11.575256228746854 8.524114567179817 1 0 0
172 2 0.1648126635497191 5.074826761328395 5.575717468235221 12.696038550527163 1 1 0
16 2 0.1452098005978071 2.600067061370322 5.800895213666483 7.869660874271532 1 0 0
156 2 0.144771212378275 6.78807539371039 10.501313532473102 8.281092347227853 1 0 0
173 1 -0.1465217330300691 5.435217400598079 6.510946694313931 13.138366984308671 1 1 0
171 1 -0.147778022851624 6.9235904918937505 8.498339955744836 13.134210687633221 1 1 0
150 1 -0.1084786613067134 4.090530830128608 11.237582540558353 7.758596850328148 1 0 0
157 2 0.1448008771884737 6.847946183536059 12.166152856872621 7.592108022389067 1 0 0
146 1 -0.1683922055014982 2.765649168649778 11.157211493182196 7.3093758040648895 1 0 0
174 1 -0.08049504082482661 6.3690785789924576 8.983244696432845 14.315981499155562 1 1 0
175 2 0.1444983779829183 6.7515708928916816 9.903891147034727 14.731610029388465 1 1 0
176 1 -0.02758004406972094 4.820648607128368 6.979736031869518 14.31373697642741 1 1 0
165 2 0.1679961280068784 7.561925653490375 4.728984221515325 12.694757319580006 1 1 0
179 3 -0.4617577447656976 3.0442235399497894 5.410404730246059 14.908396576033411 1 1 0
227 1 -0.01246175264482217 3.404065585447033 6.263400974566235 22.479755081524345 0 0 0
42 1 0.3991817111519196 7.197236516171471 4.461091095950341 18.418390856515877 0 0 0
43 4 -0.4306500655733267 6.574283730092588 3.552359306344437 17.322789265822486 0 0 0
40 1 0.4211165844099069 6.874475172971498 4.23185261933184 15.972131836863394 0 0 0
45 2 0.1994776655314483 4.334793879306621 3.0506854229966036 15.704101075787822 0 0 0
46 1 0.1813284946880609 5.3628401379501405 2.6954495528430393 17.592049501144274 0 0 0
47 1 -0.1078081756401513 4.267343625744868 2.612893828840893 16.698369103313233 0 0 0
178 1 0.3950033660147021 3.6504059067414096 6.436506658939097 15.151610343713614 1 1 0
183 2 0.1817656918758285 2.8442970601556463 9.121822229261067 18.527768025757325 1 1 0
181 4 -0.4246106234001771 3.379371812412187 7.441499268374484 16.309992236419642 1 1 0
180 1 0.4036902230972099 4.504911355453223 8.55307883405087 16.2173907861339 1 1 0
182 3 -0.4779959489239883 4.746213755260637 9.413727096186044 16.993523784993553 1 1 0
50 1 -0.07228594884252935 3.028841268463075 12.414363567959015 17.09128529461489 0 -1 0
49 1 -0.1448798800878298 5.185943677452187 12.460562328004578 18.85269719582876 0 -1 0
53 1 -0.1158669774032858 2.89299070091417 11.850404752930288 18.402522798192784 0 -1 0
52 1 0.1745071322679576 3.9772927921052 11.839548492787113 19.329847291350955 0 -1 0
216 2 0.177818378421101 6.1298754839587115 9.439275094829346 19.483528806266875 0 0 0
48 2 0.2235079567259731 6.0240896612593895 12.443632658241677 19.53825656720997 0 -1 0
220 2 0.1771745671294345 4.501548803030188 4.49965476548838 19.662397934641326 0 0 0
44 3 -0.4639663441937036 7.095585638855534 4.346253814043722 19.605854227659286 0 0 0
212 2 0.1557798045085826 3.3504097673509716 5.836918609436689 19.643364372128445 0 0 0
226 2 0.1424205874440395 4.352426724764662 7.743065508218479 19.89622263591672 0 0 0
55 4 -0.469454016357176 3.833998306465949 11.274100027424595 20.699368979265927 0 -1 0
215 1 -0.1409113589510519 6.3303687862987434 8.586582044711388 20.144690599504912 0 0 0
224 2 0.1863696805794415 5.7741557756602395 3.8134673262564807 21.857975660526677 0 0 0
59 1 0.3871254348418773 4.933083130913913 11.472973750023835 21.79490739746467 0 -1 0
58 3 -0.4709305636917318 6.107915053881726 11.570807614781316 21.696430261164025 0 -1 0
228 2 0.1537901661745941 4.386763833646125 8.249981288826053 22.44903614996918 0 0 0
214 1 -0.0857195234822325 6.848327478077324 6.378818036717116 21.91861164497505 0 0 0
210 1 0.2612038019557703 7.611895047828283 8.472949934672098 20.81709680642838 0 0 0
221 1 -0.1057405969112007 5.328557615583044 7.616448247068001 20.385879286468587 0 0 0
218 1 0.001859624256686393 5.548042879825685 6.513501300873886 21.292295548683086 0 0 0
225 1 0.009276261293082816 4.411982289504925 5.601554478840046 21.616443826753912 0 0 0
217 1 -0.2997753039840031 3.752348863127819 5.030048261060097 20.274788113427615 0 0 0
223 2 0.1576120435395465 2.9359294839326693 4.314388618761837 20.486001574625966 0 0 0
219 1 -0.3079508102138253 4.937956360482048 4.298139085555487 22.402682185090654 0 0 0
222 2 0.1416623915999138 4.1277419671227396 3.550444242727592 22.51293174510713 0 0 0
177 1 -0.05917752773338551 5.285400350062725 8.262740596367525 14.972219658333323 1 1 0
60 1 -0.07582306589603582 2.710712118582503 11.449410382829186 22.942224695183 0 -1 0
61 1 -0.06320081780475527 4.214511007689651 11.59772210743712 23.175410232629822 0 -1 0
64 1 -0.1289097867610162 4.717777446726032 11.860775434537727 24.473011393676803 0 -1 0
65 2 0.1746563989866775 5.762115630113303 11.992843783348816 24.667865212342836 0 -1 0
86 2 0.1609429142690202 3.0687823576197966 7.231775412999046 29.99049820118269 0 0 0
213 2 0.1343831470121749 5.289119723689974 4.53513607792281 23.430485307329388 0 0 0
230 1 -0.1046773581538873 3.5555828541636965 7.664541427166082 22.859819409936165 0 0 0
234 2 0.166848374606906 2.813577186532087 9.321668331385602 24.03697680759363 0 0 0
232 1 -0.1612332537287978 2.6601745486528547 8.266122192357358 23.77036231176098 0 0 0
67 1 0.2577182702608006 3.7919386703722946 12.038737813894587 25.55638581387389 0 -1 0
241 2 0.1720956302565551 3.652767760461083 8.053527834652014 25.702333626719234 0 0 0
70 3 -0.5020752755322069 4.310986903772357 12.522067504548028 26.710733821560428 0 -1 0
69 2 0.1828906898301986 4.912528353879093 2.6254277471903733 29.194664367583457 0 0 0
72 1 0.2673359340792104 3.5830355920169543 2.9338042579272257 27.4643828688763 0 0 0
71 1 -0.1067659504023851 4.018922851768178 3.1556640988143227 28.824709516072677 0 0 0
76 1 -0.08660697340607926 3.322509244208373 4.024558563275575 29.682954365575053 0 0 0
245 1 -0.03113040517981795 3.777706920797039 9.275263278635256 27.509582538237797 0 0 0
242 1 -0.1480084675116063 3.1028700155275866 8.618011520317893 26.45018263056934 0 0 0
98 1 0.2452940584260303 7.439685071485908 5.691101509774128 29.654843068544842 -1 0 0
248 3 -0.4594305327291299 6.1608612592501455 9.079178517737475 27.04655936733143 0 0 0
247 1 0.4252066644288884 5.298558736427708 9.438027437718471 27.79113552351977 0 0 0
246 1 -0.0568337562801832 3.020720990349119 9.956224794913377 28.59924693344932 0 0 0
99 3 -0.4957530067903617 6.226754521575921 6.183358400218168 30.012548478990364 -1 0 0
250 4 -0.4284461630305803 5.449120847149519 10.12329750918419 29.146197946196995 0 0 0
249 1 0.410284282981298 3.9907601145615046 10.468811422477371 29.659969175367692 0 0 0
252 1 0.1755688664717953 6.682147473160979 10.871233337568755 29.592975676344896 0 0 0
254 2 0.1696089862538126 7.606391791971082 11.05935008401779 27.63992084634597 0 0 0
211 2 0.1400166807534532 7.059272648285371 5.56084300957843 22.588837738730795 0 0 0
103 2 0.1887928315136761 7.658525109445179 8.404891453611718 30.150175619937663 -1 0 0
73 2 0.1371863519653063 3.6720573522380184 4.163515994805324 30.710823091069123 0 0 0
255 1 -0.1468727817809336 6.936999617078286 11.196229753257144 30.955784841363013 0 0 0
251 3 -0.4728551488260749 3.690728184341197 11.01087723028345 30.656718467091657 0 0 0
104 1 -0.1113836556920648 7.45576071015223 7.88486130745131 31.08232219518656 -1 0 0
101 1 0.258555420375375 6.402558226168605 6.9134927533816715 31.125820966411684 -1 0 0
97 2 0.1563956451051731 7.499179376354726 4.223121299972087 31.325920600183263 -1 0 0
253 2 0.2253862678683216 6.160107621218058 10.958534162248311 31.68962610873754 0 0 0
74 2 0.140033459247335 2.7570902058687543 5.8326855620353495 31.883742298995976 0 0 0
154 2 0.1375961951458282 4.878110989089217 10.75839089122217 37.76843749625381 1 0 -1
122 3 -0.5122056079012798 5.594012145396872 8.059600153507859 37.633599044654574 0 0 0
128 2 0.1834748352763674 4.901062839854898 9.29917307043613 35.45965548954166 0 0 0
132 1 -0.1265252036383649 7.3502861411621705 5.452277680737154 37.308748007977954 0 0 0
100 2 0.1405172157965962 5.13057453525548 5.705605157622973 32.46136515740582 -1 0 0
102 1 -0.1454164300628588 6.010163613542758 6.3421583545673625 32.391300671530516 -1 0 0
272 2 0.1776116509817343 7.417382123016187 9.273145389533504 36.51533734698538 0 0 0
105 1 -0.07120848482268041 6.809490185706966 6.4857020476006495 33.55506270688866 -1 0 0
106 2 0.1642248829563088 6.559639896658206 5.986381679677346 34.482866290812055 -1 0 0
138 2 0.1647433438412681 7.482922592096323 12.670911291225494 36.045234688983854 0 -1 0
265 1 0.4093336979638857 7.608680500550396 10.889841008837625 33.97815944269219 0 0 0
264 3 -0.5050896084611648 6.548443727546637 10.398588482550489 33.860242955179814 0 0 0
124 4 -0.4625298899413529 3.8331980541681876 6.882535092111513 36.416782043660945 0 0 0
125 1 0.3841591854221492 5.21341433953795 7.070082414842255 37.06293819724367 0 0 0
127 1 0.3788871222615711 3.84773973238178 5.434755090374557 35.7992021169253 0 0 0
129 1 -0.07321712922151219 6.029829401042203 5.779948709261131 36.90919236844866 0 0 0
130 1 -0.08353167202106337 5.180779138515069 4.791960411485679 36.1672774747466 0 0 0
136 1 -0.1508172818651489 7.045072475348068 3.208664231020907 36.27250230391296 0 0 0
133 1 -0.09783306202750303 5.73923266110288 3.494117143550011 35.86440971068819 0 0 0
134 2 0.135573929391865 5.157587834207185 2.7257725009787115 35.30061202070719 0 0 0
126 3 -0.4754278677238358 3.0450900663588896 4.950786757446119 35.07274649382328 0 0 0
119 1 0.1661417375423119 3.1513550877370413 7.996126434167853 35.63605811421722 0 0 0
120 1 -0.084767184993672 3.2828518395349113 10.019980860285898 34.18942299198554 0 0 0
123 1 -0.126480684958934 3.8497797573009316 9.121205532195457 35.13773699744398 0 0 0
121 2 0.1650712132942464 3.8775020666145568 10.86504846488608 33.7966458501151 0 0 0
147 2 0.1463791326426543 2.564202147811882 10.599860667477788 36.979489195908485 1 0 -1
5 2 0.1529232876094715 9.539471183187931 6.299389596014464 10.52155999838103 0 0 0
7 1 -0.1035447637837813 10.017562239734605 5.869443334838622 9.630750433852551 0 0 0
20 1 -0.01049636148204201 11.48784298819777 7.517760765277656 11.42485485860227 0 0 0
24 1 -0.1124100353450844 11.024010427542587 8.86109613263158 11.739310963172521 0 0 0
10 1 -0.008694895633309063 11.399254360579683 6.194931829194212 9.31720771114236 0 0 0
22 2 0.1226531395532826 11.145753668835649 9.66811219118075 11.011049169182499 0 0 0
17 1 0.01628851484877782 12.156376115753494 7.148731812827411 10.154086363625499 0 0 0
18 2 0.1538283506853443 11.535680010049454 8.944565936364128 8.901307203575652 0 0 0
14 1 -0.3022263310683951 12.456206691627346 8.454146432767834 9.25701349693098 0 0 0
139 2 0.1371904179955878 11.662529285445054 2.5898825624602897 9.861284927137923 0 1 0
140 1 -0.1488871443631009 12.441356404420166 12.500465140289364 9.271450424326245 0 0 0
141 1 0.256562167693372 12.10285686521815 11.736120876654734 8.08627896453562 0 0 0
275 3 -0.525975455891495 10.835236544581855 11.34921362275607 7.982978484299144 0 0 1
34 2 0.1614574356594823 8.222779046882625 6.333076279320458 14.299649978061773 0 0 0
2 1 -0.1652278764571101 9.268915491958811 5.002194561794661 8.798867115415636 0 0 0
1 2 0.1592286298764292 8.241731238744805 4.746221596361233 9.06484993250335 0 0 0
23 1 -0.0953492776570494 11.28484010910248 6.486312787018446 12.417687668479122 0 0 0
21 2 0.1329236364983884 11.617352071116477 5.4635518493651825 12.207627174375634 0 0 0
12 1 -0.103618946499824 11.984802479058589 5.588940158677557 8.129210241969833 0 0 0
144 2 0.1541748622172667 7.914160473467403 11.733959410633204 8.955490503338684 1 0 0
276 2 0.1490777218859841 9.08175009886316 9.493984305712914 7.762955480561285 0 0 1
3 1 0.2728417871973359 9.842783505192806 4.475475141946456 7.594620353212072 0 0 0
26 1 -0.1513754088931382 10.41392538260148 9.1449876150539 12.981895473272406 0 0 0
28 2 0.1347106468793784 10.083942111379532 10.153372313528049 13.2176653564227 0 0 0
27 2 0.1793305557236426 10.550429408786751 5.96748713366414 14.398784765835778 0 0 0
25 1 -0.1419066107120081 10.671499088663595 6.764397058998763 13.659595383029107 0 0 0
29 1 0.2714199467652657 10.222068748773733 8.10697714377828 13.970200353509558 0 0 0
8 1 -0.1154302129533405 11.224291338636673 4.737326412035592 7.295708814757964 0 0 0
169 2 0.1388794509651018 7.741936704911082 9.067651254121362 12.66331829718239 1 1 0
30 3 -0.5174038949464707 9.69430123382767 8.452961413837995 15.140629126504127 0 0 0
31 2 0.1652752150645568 9.898256119291402 8.39625446283454 17.771187163338126 0 0 0
32 1 0.2620219904751747 9.141746741826811 7.480070672169949 15.90965440120467 0 0 0
33 1 -0.1411102988763609 9.293349149609524 7.608720900695737 17.358494385785697 0 0 0
35 1 -0.1373561673244111 8.351561935859088 6.422644139776027 15.368471058938074 0 0 0
36 1 -0.07188815450650109 8.693113351053952 6.7107637246872445 18.2472928582989 0 0 0
38 1 -0.02659913812953582 7.729946607172897 5.471439030764831 16.231765817120298 0 0 0
39 1 -0.03841430626290944 7.904491954970541 5.607878176863688 17.7206038822274 0 0 0
185 1 -0.1450999265669545 12.777290502082664 8.14971958502017 18.54409936697742 0 1 0
207 2 0.1650106576523313 8.842320715516848 7.231766561685873 22.17475682779807 0 0 0
187 1 -0.1545632988223608 12.10723436530341 6.034421770867176 17.61943449553416 0 1 0
190 1 0.17142945767563 11.37941488299153 5.632265363657906 18.77159859692121 0 1 0
186 2 0.2316583989533322 12.12438523513868 5.3337274276979425 16.780290591421473 0 1 0
51 2 0.1615011852093211 12.617372949704878 12.38622423270853 16.400706462119594 -1 -1 0
193 4 -0.4446231949210975 10.700592158244735 4.306379598055457 18.896342723081098 0 1 0
192 3 -0.472849297245466 10.412251944711423 3.5321751192221047 16.544483918181427 0 1 0
195 1 0.4061582446273065 10.243480301046558 3.3744077245702075 17.706595309863147 0 1 0
56 2 0.1824445368681225 12.383606162349148 11.409488282018799 18.6759746848263 -1 -1 0
198 1 -0.04522193550699559 9.530220345961869 12.613827637744343 18.323945919634152 0 0 0
200 2 0.157410963643461 8.82474955089582 11.344362358285911 16.661868089851474 0 0 0
201 1 -0.05735060202410198 8.882580314993888 11.436208600430732 17.74988783478672 0 0 0
206 2 0.151509448985862 7.880205110631737 9.557164984291603 18.185418735210774 0 0 0
204 1 -0.1599160798007448 8.369649183794897 10.450214527551411 18.591818320224796 0 0 0
37 2 0.1620794938716547 8.839664599200237 6.823436770286065 19.324194231882892 0 0 0
188 1 -0.1083771973633744 12.0470614994323 7.846968364644665 19.73819065232035 0 1 0
191 1 -0.1371336487631737 11.394507236031105 6.5880073074769525 19.846667627942203 0 1 0
199 1 -0.01620272163353795 9.517957111479106 12.74051988514922 19.832873173941422 0 0 0
189 2 0.1694083474906914 12.029840221580095 8.595421837402984 20.549909844398822 0 1 0
205 1 0.2711549399516234 8.492323804678193 10.519347767737525 20.050227850350247 0 0 0
197 1 0.4249006215722868 10.188542167385048 3.6706058820955967 20.19763720078995 0 1 0
194 2 0.1729408703761606 10.872832063740322 6.416920740670968 20.815577741197643 0 1 0
196 3 -0.4841869722563827 10.288115587432767 4.080923458015064 21.321604278264555 0 1 0
54 3 -0.4747950633501987 11.809586616926646 11.085342313726464 20.982849341555124 -1 -1 0
202 1 -0.06173345825152345 9.004670624477708 11.706859890707333 20.656120187347923 0 0 0
203 2 0.2018528726653084 9.037164794159917 11.812614295969704 21.749332173310144 0 0 0
208 3 -0.4875043837816335 8.5389648889412 9.41770848159057 20.855109936294838 0 0 0
209 1 -0.1291463230296405 7.861851679725298 7.330057547579313 21.67911034674914 0 0 0
184 1 0.1775503071029407 12.875332406597076 7.223246118599594 17.453729861722785 0 1 0
57 1 0.3934562369502967 12.88142512674714 11.2379009809568 21.460946379471316 -1 -1 0
63 1 -0.09377130319620924 12.261440560872606 11.536189717532213 24.09095096716206 -1 -1 0
62 2 0.1470816317873199 11.201316141550304 11.39682298975059 23.95673966511357 -1 -1 0
231 1 -0.1064609546006763 12.671657483152613 5.54252320491609 23.01514145922547 -1 0 0
229 2 0.1468713871412992 12.513425846929568 4.495763510561722 22.72137681062351 -1 0 0
236 1 0.2636014128324434 12.02968018688466 7.50897752221033 24.393105266596955 -1 0 0
233 1 -0.1471787072609955 11.785205105467911 6.166954589946424 23.926339365351062 -1 0 0
235 2 0.1436791045910283 10.931833144138938 5.5984648079340005 24.331795791271933 -1 0 0
237 3 -0.515977393869842 11.37990308212397 7.94834285496448 25.472494607565395 -1 0 0
66 1 -0.1700276333392742 12.797251198092436 11.799868311921815 25.359253969544945 -1 -1 0
68 2 0.1358333902832262 12.110069440960078 11.840858870864686 26.209952292993265 -1 -1 0
78 2 0.1295359604723179 12.507972170093176 3.5579594773037826 25.959935223646852 -1 0 0
77 1 -0.1696779264676473 12.838021461836938 3.664585618717453 26.997559558460885 -1 0 0
75 2 0.1536146289169218 12.329526355548422 7.327113796726586 28.642251621951598 -1 0 0
90 2 0.1342389827001731 10.232400678615114 6.99172556351595 28.099232036512145 -1 0 0
83 1 -0.1100967994685333 12.13682568252776 4.525342323306997 27.857106039322762 -1 0 0
88 2 0.1232131476708144 11.269594314478185 5.0506346453517486 27.474211107324216 -1 0 0
80 1 -0.005337086828309814 12.552928409139104 4.724869027432889 29.227656226907026 -1 0 0
92 1 -0.1189275307532001 9.65737416018481 6.395283518696797 28.812209530527827 -1 0 0
94 1 -0.1490198099720978 8.251388438286998 6.376544149275114 28.68030710422152 -1 0 0
239 1 0.2422269363553117 12.078957731181426 8.667497341378937 26.38388152640686 -1 0 0
238 2 0.1467930847883281 10.274172348809847 9.43086235714581 27.3404938757864 -1 0 0
240 1 -0.1707845779008519 11.360772856135526 9.384766898817713 27.403704059543536 -1 0 0
87 1 0.007828874691095255 11.809970072351458 5.688942123553427 30.100319931643288 -1 0 0
89 1 -0.00713878475758703 10.33857291965581 5.678351543859977 29.874844224497473 -1 0 0
243 1 -0.09824113727065564 12.002159967952368 10.006566184608056 28.496333560078313 -1 0 0
256 1 -0.1212604990572963 7.729331349108179 11.240055422906915 28.685154420763133 0 0 0
259 2 0.1055637709360043 9.728856791189607 12.133267293947823 28.42332182526929 0 0 0
258 1 -0.1089434227948932 8.939135338812404 11.861073788644905 29.140458860872215 0 0 0
244 2 0.1605097662559984 11.399246800278425 10.523244641539765 29.275513065169985 -1 0 0
81 1 -0.2948310813201545 12.408419696687561 7.146900500039822 29.730773054590884 -1 0 0
96 2 0.1792384956331492 7.780426331782029 6.964565118738349 27.886261536539745 -1 0 0
261 1 -0.1061951062999179 9.138532038720063 12.087363987524409 30.53957276296264 0 0 0
115 2 0.2146780377513144 11.613398364246423 7.052929652751069 35.59556694823351 -1 0 0
93 1 -0.1083314070904941 9.506692494273276 4.8556378498131325 30.737053611676277 -1 0 0
95 1 -0.1376024560502658 8.10309426430954 4.836720700869594 30.61193892945859 -1 0 0
266 2 0.1704183254904858 10.111428035393825 12.52033850451332 30.84794467928523 0 0 0
257 1 0.18890363179825 8.143060746585196 11.741817978109534 31.509959088608632 0 0 0
79 1 -0.2992431187248781 12.139876776055925 5.505225031449777 31.634834427076104 -1 0 0
110 3 -0.4819868403651848 10.19514075221505 9.361222574245783 31.498420036742665 -1 0 0
91 2 0.1600815445541353 9.974920908737108 4.259286544919926 31.526348803088112 -1 0 0
114 1 0.1756632642037118 11.553408486196172 8.749516767596155 34.249854131562515 -1 0 0
85 2 0.1702128721278081 12.059033561115028 4.444112385843544 31.959447843625444 -1 0 0
82 2 0.1688672029967742 11.456011506018449 6.091367487962028 32.29246223942526 -1 0 0
274 1 -0.1339610837631067 9.213806909845829 10.060935687686587 37.438735831952634 0 0 0
273 1 0.2577654387058818 10.342295575252958 10.967535842651191 37.37627314935875 0 0 0
137 3 -0.4837636480103919 9.119164726227439 3.775929184256177 37.28643910206373 0 0 0
135 1 0.2684230067635274 7.86907395424784 4.158122364554854 37.00196044222386 0 0 0
107 1 -0.03853352874200544 8.33247005736337 8.05113099408986 32.204911919368605 -1 0 0
109 1 0.4083591342781951 9.618696298604016 8.8035727749973 32.36994602893857 -1 0 0
269 2 0.1719266582800632 11.493728089255763 12.34496642588419 36.04735952626522 0 0 0
270 1 -0.1180020392468309 10.62935844447671 11.676307336852105 36.14587204100205 0 0 0
271 1 -0.06951060575843773 8.281473395378573 9.946770202687803 36.40382783197005 0 0 0
9 2 0.1876754290077473 11.68297871326046 4.300525251761685 36.9940707206361 0 0 -1
108 1 -0.03610354258536078 8.012046206125486 7.2776490624509185 33.483561374732375 -1 0 0
116 2 0.207961579286406 11.95519919652723 10.475195877902856 33.037274563636245 -1 0 0
267 1 -0.02629902500995793 9.713886802941989 11.579189168008675 35.070611290030044 0 0 0
268 1 -0.06471106535022356 8.465074391527182 10.725151967317403 35.21650597361783 0 0 0
111 1 0.3891094679185719 9.131487005292499 7.553702035034869 34.46679206328333 -1 0 0
112 4 -0.4285646151105758 10.124317560515127 8.553709316498617 33.82693337093224 -1 0 0
260 3 -0.4742616828817252 10.599394566652434 12.861972860847555 33.21242626023577 0 0 0
263 1 0.4084525730215791 9.703863244142832 12.21116977626904 33.66755844271502 0 0 0
262 4 -0.4435576158556686 8.339685220550717 11.84025443325436 32.98230609717776 0 0 0
113 3 -0.4422784710657357 9.201477132756775 7.0248087451557675 35.55858021695332 -1 0 0
118 1 -0.1129664620972038 12.37102993906588 9.792788707194742 33.76413042489126 -1 0 0
117 1 -0.1429769895959246 12.221077591667415 7.888997449631796 35.20145972574478 -1 0 0
131 2 0.186865557984391 7.98695795956196 6.175606496462081 37.82391136961921 0 0 0
84 2 0.1816984778968772 11.87220030333594 7.9648142324062015 30.252875744462823 -1 0 0

Velocities

153 0.0036892151921781415 0.005183685409534415 -0.005598789975466298
15 0.0042073276496663965 -0.001201677720591365 -0.0007044492256542706
11 -0.0018361198270885842 -0.0005080786736556456 0.00015667648751775828
4 -0.003836720889795844 0.00598819874857502 -0.0007994455973015999
6 0.0007476413376642063 0.004467434264733611 0.003000856699995588
13 -0.0009576009044251912 0.002800839996633459 -0.004599558052786552
19 0.000807412658721998 -0.0023790725831369765 -0.006031361613646804
142 -0.001212966962596104 0.0031666293877627982 0.00017810207376189137
149 -1.906533798409493e-05 -0.0015459932170575855 0.0023382339941496375
155 -0.000254881027001146 0.0008755051313457928 -0.0002619747872890087
143 5.3286027374656894e-05 -0.0005989650832839366 0.0010560065066651597
145 -0.0034950106913318357 -0.0010134892142010963 -0.0018686227838542967
148 -0.001890304349677856 0.00016914966417888927 -0.0007517584058832475
158 4.776292538871873e-05 -0.0011300861968499985 0.0007892878451969128
160 -0.0029337191588322408 -0.005536773362505105 0.0015701536437530972
162 -0.00019317730497161531 0.0006715070260147405 -0.0010528185138250913
164 0.0012612352304311408 -0.0017091234718502998 0.0021756704010825237
166 -0.0014541714699517058 0.005719351817675479 -0.0003799680655299232
161 0.0008540053472104547 0.0008102926237736162 -4.322526179578801e-05
167 0.0002296972240195372 0.004486734624717742 0.0002211542961405742
163 -0.000310728274285181 -0.0005192158237587851 -0.0018828096338647004
168 0.0009886796707389083 -0.0016193269904635503 -0.0010608192465944466
170 -9.992602698850799e-05 0.0011760006324936876 0.0005886965433604348
151 -0.00021398463837526787 0.002036768756001479 -0.008765570897015336
159 -0.004568030331717922 -0.006569395422232418 -0.0008777465148815455
41 0.0012432286455143465 0.001568128327032648 0.003056459094306131
152 0.0008323069704482943 -0.000514841910008972 -0.00041546187546367356
172 -0.0027117636578990827 -0.0024189275826659697 0.001992160923779081
16 0.00316844475625063 0.0007496166843559632 -0.0010839720720697095
156 -0.0019874405817761178 -0.00016730693537680353 -0.00011575467681588855
173 -0.004323005420784667 -0.002478704621792664 0.0029650235032302845
171 0.0003876360829106028 0.0021958424602562102 0.0016938362954476178
150 -0.0017918696948445478 -3.696409732668509e-05 -2.604584174761882e-05
157 2.0882989330702157e-05 0.000524696903435936 0.0007634125644703974
146 0.0013621079099512105 0.000528094031345181 0.0005221132773876779
174 0.0033259041473896623 0.000469641409631928 -0.0036766166956746847
175 0.0051248608569354195 -0.004182057480979204 -0.007767297847085455
176 -0.00031859013517834155 -0.00300092384541114 -0.0024573859956809273
165 -0.006608629617764783 0.00689949183871024 -0.0035979589707607887
179 0.0028997941573774126 0.004533758945058815 0.0006708160660442194
227 0.0011164407673669504 0.0002845786644472342 -0.000977124407918291
42 -0.002818499394683004 -0.004308563754221899 -0.0005482397202159458
43 0.0023744100577195093 0.0024927987750730384 -0.0014256190740091353
40 0.0012211068878912699 0.001791371516851649 -0.0009491848474371977
45 -0.0016247787685661247 -0.0025912757884594046 0.0028138478970870543
46 0.0007723372741900044 -0.000592738091251566 0.0012076581409312403
47 -0.0007302999179261989 0.0012919994331050486 -0.004085486686256848
178 -0.0009580261997370594 -0.004630899307816798 -0.0031468021074816297
183 -0.006960408237846251 -0.010939419778425684 0.0024193650180261567
181 -0.0012325253925353076 -0.0017405397905144537 -0.0010723138452303081
180 0.00227847605163115 0.0030515472625305315 0.0014476743361315127
182 -0.00034518024083475134 -0.0005389938925531617 -0.0005943867650197773
50 -0.00023030438593955158 0.0008356768916152488 -0.0022957174088344486
49 -7.640264297811723e-05 -0.0003246230549698277 3.245537339432089e-05
53 -0.0008276261958549268 -0.001040019703356488 0.001907325072168415
52 0.001924758079361063 0.0017237671643675425 -0.0036457802004961257
216 -0.0013172975358836834 0.006725014218081244 -0.0045245554243665345
48 0.008434420064054766 -7.131544011184316e-05 0.005626006447470479
220 -0.0009582719479103764 0.0007263471887520581 -0.002117265916465899
44 7.525776008331636e-05 0.0001604193973207303 0.0016057733462748747
212 0.0008296111407884934 0.00021613615959992848 -0.00045237931657581096
226 -0.002652211325719279 0.003989633600130814 -0.0024590682207081454
55 -0.001338720393410994 -0.0024132003117629027 0.001663797729053374
215 -0.0021499625099155976 0.0006227619102575864 -0.001462314023325705
224 0.002748134625052045 0.003308992904434311 0.002370677860301606
59 0.002462199762261087 2.4523827363198262e-05 0.0014125250745867493
58 -0.0004033700904881265 4.642211021416753e-05 0.0010790361919857947
228 -0.0041355404704186685 -0.004110098093122028 0.0003821235328135222
214 0.0009779151041991192 -0.0011150956335578416 0.0010105153814123243
210 0.0011519371539761446 -0.00016596095351618101 0.00013750016796678177
221 -0.00034725222817231594 -0.0002626150719767532 5.3648484464817254e-05
218 -0.0013516948632996352 -0.00033818632676852807 0.00015899628822434644
225 -0.000425330104747592 0.0003477023362283956 -0.001021921870169025
217 0.0004853875403169854 0.0001374386598155734 0.0008786796157705354
223 0.000383686006234752 -0.0013462550088070766 -0.0015862670124463909
219 7.595491049726924e-05 -0.001042484450630416 0.00010207849297646211
222 -0.0005698943501304361 0.0023570953462331242 0.0024654948506051214
177 -0.0024374287531204516 -0.0011565749729043674 0.001400874144127869
60 0.001751962444878667 -0.0006449494967980378 -0.003533177966711856
61 -0.002970522851908537 -7.807725262799563e-06 -0.0007580996242085141
64 0.0022714161761207903 0.0006614968482413906 0.0018240716193305734
65 5.701230286796395e-05 -0.0016740089062313914 -0.014791445577380874