LAMMPS data file via write_data, version 19 Nov 2024, timestep = 20000, units = real

5160 atoms
4 atom types

0.7077724969459451 7.292227503054056 xlo xhi
28.310899877841024 291.68910012216895 ylo yhi
4.068807141817338 41.92119285818238 zlo zhi
0 0 0 xy xz yz

Masses

1 12.0107
2 1.00794
3 15.999
4 14.0067

Atoms # charge

160 2 0.1305844826420365 3.5243002361113422 30.108985056730617 8.014892280084341 -1 0 0
162 1 -0.1125296730001137 3.2406884546816124 29.27308366801103 8.55491621502281 -1 0 0
148 1 -0.007962293078354412 2.7464221221490415 29.154755665483947 5.671990695413332 -1 0 0
145 1 -0.1104614513002763 1.3722242112405425 29.04881104560518 5.212236274844181 -1 0 0
150 1 -0.1009625079041249 3.4597968794083225 30.356097379637824 5.286675056718005 -1 0 0
154 2 0.1138878655898035 4.549244895436466 30.443360165829127 5.585212471561329 -1 0 0
146 1 -0.162856967626592 2.8236262705906308 31.374619522833743 4.576407913757247 -1 0 0
140 1 -0.1324800970224037 7.2424423007947 30.182971122482783 4.7115182702258815 -2 0 0
157 2 0.1204599659548395 5.288374436258177 28.736720979019132 6.522640663982903 -1 0 0
141 1 0.2508423260030631 1.3946687527344044 31.307887333715488 4.234128852882341 -1 0 0
147 2 0.1551090292419968 3.410875553189695 32.23671732451183 4.347151369125538 -1 0 0
164 1 -0.1606502634725256 3.306478068648615 29.31076361760665 9.94443794336383 -1 0 0
139 2 0.1556234553827062 6.144058203270343 30.121730699445617 4.51898303903019 -2 0 0
408 1 -0.1462494326871753 3.2865966168398977 43.6286861194571 8.88015916999354 -1 0 1
295 2 0.1165724617148932 6.511741835092731 37.97762799767831 9.679764483898694 -1 0 0
277 2 0.1387798779177052 3.6327376818256516 41.455730639115224 9.363965580522544 -1 0 0
281 2 0.1082179772777944 5.008511081305936 39.31674723912034 9.62350176252679 -1 0 0
407 2 0.1746561366293343 4.296564187516278 43.278676764221935 8.677650199686934 -1 0 1
398 3 -0.4169654830638317 3.6585612597129957 43.60036919145773 5.902839486058438 -1 0 1
282 2 0.1244973945698753 1.2544690900314253 39.064189392221834 10.02256656828331 0 0 0
401 1 0.4095080080831448 2.615780892353329 43.93601916807676 6.344378875005086 -1 0 1
411 1 0.2716881375652744 2.8144554942267934 43.75622127744314 10.232433857179064 -1 0 1
405 1 -0.03125899202550305 2.3282189349815914 43.93379580238651 7.86913101483151 -1 0 1
278 1 -0.163379682441225 4.16758345832275 41.19530661001423 10.293992258724387 -1 0 0
400 4 -0.4241460503871832 1.3357507539963873 44.47262761269562 5.673046740060618 -1 0 1
409 1 -0.08102976334129811 7.135799198706586 44.707156427132276 9.497405695821978 -2 0 1
406 1 -0.04486661014188572 0.9669055406571452 44.484186583838614 8.150693388341848 -1 0 1
166 2 0.1417517400929778 3.699783029163731 30.205582443075944 10.417307703821006 -1 0 0
172 2 0.1650630781152251 1.1385851896411014 30.303336333167742 12.380230379408019 -1 0 0
170 1 0.2306920605055882 3.1146391123065738 29.455114953795277 12.758223872947863 -1 0 0
173 1 -0.1292571087815092 2.061579616704374 30.350734024232928 12.933260322934123 -1 0 0
169 2 0.1775439534883868 5.2093294624954725 28.927305103570248 13.298217123124676 -1 0 0
171 1 -0.1210160851450881 4.369174070737416 29.629242980153762 13.451969895918078 -1 0 0
40 1 0.4385756713317107 1.369760128443406 28.922454498736066 15.734152633931746 -1 0 0
176 1 -0.0411713139636109 2.2553355421889387 31.506216386442055 13.790913302844931 -1 0 0
174 1 -0.05269992518023178 4.640410450195571 30.75036761283498 14.303534277228788 -1 0 0
175 2 0.2013136085404828 5.61125248248444 30.775672080388052 14.787672656178659 -1 0 0
179 3 -0.4613806120340387 6.977260015777987 32.984977528072655 13.561401896168244 -2 0 0
177 1 -0.04482782017395077 3.6307309733304924 31.75260128761415 14.49144310073687 -1 0 0
178 1 0.3746023880493398 1.4270640238507166 32.66722352089365 14.115317925506242 -1 0 0
181 4 -0.4256261677135818 2.2133617589783507 33.52474710319115 15.238878803853273 -1 0 0
180 1 0.4126182259719096 3.6284775042214914 32.98761760393202 15.324325292845284 -1 0 0
41 3 -0.5055172051962208 6.877023051349874 29.057589371181763 15.239841682446366 -2 0 0
183 2 0.2081631253805728 6.432192521047625 34.825213338561454 15.058236587715527 -2 0 0
185 1 -0.1211286621084858 7.052839332167378 35.354976566065446 15.745668760294212 -2 0 0
184 1 0.1714768886440265 1.7117969528093164 34.720704104107014 16.001600817389555 -1 0 0
182 3 -0.4785528816512777 4.574804100423792 33.46932746223068 15.913912744524916 -1 0 0
291 2 0.1333055686452398 6.121819235833959 36.29762447093642 12.271449783867821 -1 0 0
297 2 0.1313721715503305 1.2611895980434893 36.4479560446479 13.323408258335023 0 0 0
188 1 -0.06599515335251073 6.547409575051657 36.45330069563627 16.53247438883519 -2 0 0
45 2 0.2037458892028434 6.349583984675685 31.124946901284776 16.507523633895623 -2 0 0
283 1 -0.106698777231902 4.977188006078914 40.036723020303455 10.458438188661376 -1 0 0
290 1 -0.308176069450383 7.2631701869916805 38.165013821086475 10.43149576473296 -1 0 0
423 2 0.159501176357803 3.2834930061794174 44.572308266633684 15.025519688918033 0 0 0
294 2 0.1253474340881187 1.417413972989182 37.34202634902387 10.531258045195809 0 0 0
412 1 -0.1062362946872443 1.4948252136001072 44.33233803674622 10.486053468998215 -1 0 1
289 2 0.1244472271102646 4.800316201245032 37.25574957734892 11.276946508721103 -1 0 0
279 1 0.2509746435750286 4.113381073143551 42.1155655583446 11.387421711577979 -1 0 0
413 3 -0.488123886481971 3.4513531704590252 43.31507439974801 11.34590563009889 -1 0 1
285 2 0.1398395199851306 4.702402087562023 42.420731830021595 13.507083525269747 -1 0 0
286 1 -0.01035122147426183 5.782850379167392 39.73413744059249 11.634519942707046 -1 0 0
293 1 0.01861452943914801 6.582594724282511 38.51980679830107 11.84198245549173 -1 0 0
287 1 -0.2914795580597793 5.549745764743151 37.29716090583493 12.101144959606568 -1 0 0
280 2 0.1474178989309512 4.836672640335528 37.502641802247 12.93658293776841 -1 0 0
284 1 -0.1407406818690091 4.788998559014209 41.79570570460434 12.605103717185663 -1 0 0
288 1 -0.1165257099801838 5.554726661620161 40.590968005784795 12.770095748506069 -1 0 0
292 2 0.1397693385242843 5.95160267423949 40.32137705363591 13.760602889684186 -1 0 0
298 2 0.1423901960560504 1.3520305984031875 40.75385260768844 12.544502884025668 0 0 0
296 1 -0.01299540062023603 1.0385224862723634 38.63027781709299 12.871328590020347 0 0 0
299 1 -0.1059844921049395 1.600364540705323 37.468119133884855 13.599043297161874 0 0 0
300 1 -0.107892771064282 1.674797531989332 39.93858400860056 13.161239474674119 0 0 0
302 1 -0.1664169848636187 2.61133436644693 40.14915441709536 14.153194755992184 0 0 0
304 2 0.1346331780857655 3.0919622364364234 41.11344906115718 14.304189438313767 0 0 0
301 1 -0.1426827245211388 2.5268906561170494 37.628839524277275 14.643536162868356 0 0 0
305 1 0.2645030380821607 3.075779027028302 38.96369490206824 14.886790950317298 0 0 0
303 2 0.1659848759563143 2.874247931123536 36.787186914265426 15.22787367593156 0 0 0
306 3 -0.5254090966392866 4.045874980996057 39.09425877020111 15.765272554054324 0 0 0
310 2 0.144657903174843 2.306646049231044 41.25631883508227 16.333884358279096 0 0 0
308 1 0.2490445000711508 4.228907176000295 40.2108316997725 16.529838579089898 0 0 0
414 2 0.1814841776829653 1.2230600282852435 44.47441394285346 11.57876852995438 -1 0 1
189 2 0.1631890793983845 5.613199460884885 36.960956114238755 16.268755252609896 -2 0 0
64 1 -0.09265273744267433 6.043577855366559 32.794605017213144 22.877343003304745 -1 0 0
65 2 0.1860596480225697 6.5072233612404435 31.772240273384448 22.80901776125316 -1 0 0
5075 1 -0.1016058964092402 1.3090916761930202 29.240634798970362 22.177222866464508 -2 1 0
42 1 0.412152635645671 3.6265344061589753 29.099362808554158 16.96404915869642 -1 0 0
43 4 -0.4236401179770006 2.116571186695607 29.675766527716565 16.835533078384636 -1 0 0
60 1 -0.03386966720424178 4.138062675753632 34.232643955542635 22.255354997203433 -1 0 0
186 2 0.2333305907268025 3.4209216200668164 35.02201329188232 17.401942721364172 -1 0 0
46 1 0.1813315318667988 1.5221347206027667 30.75100446010318 17.693273701738278 -1 0 0
47 1 -0.08888255005589495 6.881020552758033 31.37546948701868 17.413386644774832 -2 0 0
51 2 0.2046616075587886 5.4167507414278635 32.88142269933462 18.069501347414317 -2 0 0
50 1 -0.05156895670620297 6.412381546185011 32.45179983102345 18.26564121053808 -2 0 0
49 1 -0.1341589783044925 2.2136484406114474 31.15317448850155 18.911032363781548 -1 0 0
48 2 0.2451221721479031 3.1852407319380114 30.579280486630402 19.155434187819072 -1 0 0
53 1 -0.1054132245970476 7.113220571671559 32.83759071130874 19.41604747490018 -2 0 0
52 1 0.184343240245611 1.8518638459753944 32.295841066112644 19.679003981236356 -1 0 0
56 2 0.1994591338313754 6.654021958505149 33.587942427334795 20.053801558282117 -2 0 0
58 3 -0.4887857998757031 4.625370815388604 31.068946614360996 20.606840994926404 -1 0 0
55 4 -0.4263274092622676 2.881208438760033 32.922959306413965 20.51542505562495 -1 0 0
59 1 0.3944794267185261 4.192873601571813 32.10722693644598 20.969471301839224 -1 0 0
57 1 0.4271466190102116 2.8773014736233327 34.240588232389406 21.369519497693283 -1 0 0
61 1 -0.04866479461834246 4.888669959733363 32.94356256482852 22.030947562906405 -1 0 0
54 3 -0.4724043458534243 1.9675898357255475 34.96977347779441 21.56933191896459 -1 0 0
5073 2 0.1967304460890275 6.0464555016289925 29.23795535474908 20.97389961195915 -3 1 0
192 3 -0.4548443468776827 4.822776411534021 35.722168021712164 19.108089214866858 -1 0 0
187 1 -0.1483766119865982 2.4386934455770675 35.37947561671581 17.065422073607515 -1 0 0
44 3 -0.4480750006381371 4.520757978024536 29.53552433716918 17.605057566384872 -1 0 0
5072 1 -0.06627180377196908 7.081861257516358 28.94897798863734 21.04575306307373 -3 1 0
5074 1 0.1863291973390996 2.6818039290666373 28.950433257541555 22.205844950462406 -2 1 0
5071 1 -0.1294224229570432 3.2717360164882785 28.404121788188288 21.031473271926476 -2 1 0
199 1 -0.03517463721065829 3.797138701888889 38.83399997079711 20.60694178347756 -1 0 0
307 2 0.1531684452232934 6.25114248783805 39.52621644916704 16.86990576644623 0 0 0
195 1 0.4017074356444154 4.389225258345018 36.81205564876976 19.341130342091706 -1 0 0
200 2 0.1785377104834136 6.557576263664652 36.854332010260194 21.505137424291693 -1 0 0
197 1 0.4179673964889543 2.7368951479479176 38.625249370481015 19.522903325131267 -1 0 0
190 1 0.1727694489192803 2.1562342992746304 36.568640898983915 17.806234385018186 -1 0 0
205 1 0.2293494192595606 4.8631358745907205 39.602936202012444 22.757987035143678 -1 0 0
312 1 -0.0583111247456987 5.777708730080687 41.01260215092954 18.357983320397857 0 0 0
191 1 -0.1100988853809186 0.8641650930116076 37.04202019281718 17.4639987250184 -1 0 0
201 1 -0.0708124657364432 5.873803708956244 37.66521205491047 21.48859935589551 -1 0 0
309 1 -0.1404102952463525 5.495806218810383 40.20288538720442 17.20819671000094 0 0 0
194 2 0.1795493728840937 7.035573460787623 37.90434206534835 17.96457681028627 -2 0 0
319 4 -0.4542981181342626 3.5193775243300043 43.78192731994236 19.922180621690337 0 0 0
318 1 0.4038961244896198 4.768602539889765 42.88775513776168 19.90898895408116 0 0 0
198 1 -0.05744662953542955 4.798526765277639 37.70942611014564 20.489811990599375 -1 0 0
311 1 -0.1413210692885912 3.214757656797142 41.170359208344706 16.937493341785107 0 0 0
316 1 0.388579534148191 2.6047950070142405 43.12298756514966 18.815383247977316 0 0 0
204 1 -0.1690450256420469 5.883212272588916 38.581133854614194 22.56707262447928 -1 0 0
321 2 0.2088676093674905 1.2355387784277818 43.00195798657603 21.281739836789473 0 0 0
320 3 -0.471692484407108 5.572188260564273 42.84003973019708 20.785096512237843 0 0 0
322 1 0.171649814893193 2.9605983362552393 44.246328252638676 21.266592386619052 0 0 0
196 3 -0.477544578951879 1.8245073615507663 39.38214938922122 19.48442830767118 -1 0 0
313 2 0.2123779318948293 6.708928317815279 40.92123896353928 18.916198128553155 0 0 0
317 3 -0.4673917955570874 1.4535333587169883 43.37260797921905 18.65310021956986 0 0 0
202 1 -0.1144179657424703 3.8964087997589534 39.74365312088702 21.736128285512457 -1 0 0
315 1 -0.0474959010816443 4.723297278706503 41.91161935024694 18.752821288894836 0 0 0
323 1 -0.120169180865493 1.750464128743562 43.799136669974715 21.788279097878767 0 0 0
193 4 -0.4203243363564085 3.135135552189008 37.386512767543685 18.673865305771333 -1 0 0
314 1 -0.0445313059431745 3.402369652804949 42.06773284292329 18.03030408753652 0 0 0
203 2 0.1697803010437197 3.118561235856834 40.512794649206654 21.869788898905437 -1 0 0
216 2 0.1502299893715666 7.091027014445368 40.686747677116955 22.905990157880545 -1 0 0
5081 1 0.3913961634192374 3.0718489176654775 29.59924433974838 24.889250837792304 -2 1 0
76 1 -0.1115403428762701 3.417828790440727 34.0650676400226 27.137778314075902 0 0 0
69 2 0.1827632659141629 2.2257445309219666 32.30023606984249 26.62417081427652 0 0 0
71 1 -0.1174168595595227 2.465921693091387 33.335137672379105 26.349696229589146 0 0 0
72 1 0.267563685287202 1.7992595042821964 33.9920110223867 25.260050654206935 0 0 0
91 2 0.1595553620849743 6.020192700941612 33.79773301363698 26.979253734070134 0 0 0
93 1 -0.1133595802229156 6.35613359960808 34.27433534307306 27.86734382556251 0 0 0
73 2 0.1457668628010479 3.831801212818221 33.57403879203953 27.984742186421506 0 0 0
97 2 0.1557044071112308 1.023457369080235 32.59050170702264 28.40271379273382 1 0 0
5086 1 -0.1221287831372193 4.124994110691043 29.311095381529928 27.327673347261616 -2 1 0
89 1 -0.01148092901963499 5.824513872726415 35.573349470697956 28.33159576669399 0 0 0
77 1 -0.1555683780973722 2.1658928199049488 35.33467197357698 24.870714804906786 0 0 0
80 1 -0.01015942240954187 3.7484308880751063 35.41715423471436 26.81840825541945 0 0 0
5080 3 -0.4411197375859785 2.05395896873756 30.20587643740565 25.093045821145015 -2 1 0
70 3 -0.4838410903149203 0.8627851026219255 33.21669270487205 24.68279327324358 0 0 0
66 1 -0.1584726725994114 5.786692158088154 34.991368906611385 23.91997579907869 -1 0 0
87 1 0.01052072282965329 4.517541542418194 36.207491353447026 27.80847553927761 0 0 0
83 1 -0.1126954114728987 3.1674069053008354 35.98530506736315 25.567070117709484 0 0 0
68 2 0.1220059517163449 6.1063783726329 35.74404030361115 24.67634290913927 -1 0 0
78 2 0.1494167041501546 1.6247992689173465 35.87565029488675 24.09245545764743 0 0 0
95 1 -0.1332990341784346 7.27023760308279 33.58048328481244 28.6795649324973 0 0 0
5087 2 0.1630000281621755 3.4178953403597276 29.96802682880499 27.90223842184 -2 1 0
67 1 0.2706310741116419 6.4834966420525335 33.7180450539606 23.878992213685727 -1 0 0
5083 1 -0.05275279494846453 4.019769475657307 29.066954263989103 25.946818687710532 -2 1 0
62 2 0.1421393382826703 4.214720843362757 36.248368490283084 23.158647058142634 -1 0 0
63 1 -0.0689801872149009 4.648538560783386 35.26996775702138 23.108411574494216 -1 0 0
5077 4 -0.4188285105511853 3.5041590010947035 29.041406884343616 23.50264021669433 -2 1 0
81 1 -0.312735193603161 3.5762550604995873 36.36061402149291 29.106367794144635 0 0 0
5089 1 0.2596818899849879 5.13651108560438 28.588705973209034 28.08581500738201 -2 1 0
5078 2 0.193243017113132 0.7976847381889864 29.756863315962615 23.08430128652507 -2 1 0
85 2 0.1249545980116595 5.355526639646874 37.71991054115565 26.368920703488087 0 0 0
79 1 -0.3101281541778118 4.966851117743286 37.643840477655985 27.37696170445224 0 0 0
88 2 0.1159797798943026 3.4201561606637547 37.00965761941194 25.220539757029854 0 0 0
74 2 0.1295497801102171 4.062524241966437 38.270751068474624 27.398577015218557 0 0 0
75 2 0.1291350187446759 2.590452817186109 36.78386369155572 28.74193641487491 0 0 0
82 2 0.1298377392837798 5.7449231998955 38.121586192264346 28.110106910475398 0 0 0
218 1 -0.01526491291132728 1.3085295349554023 42.195119103001126 25.96274134668843 0 0 0
207 2 0.1415883316244732 4.841365968221242 40.46156186934638 26.68017368441897 -1 0 0
227 1 -0.01317041200853327 2.9555923324009052 42.12850073328207 27.838425758916888 0 0 0
211 2 0.1262907228756982 6.570865486857868 41.81949477244391 27.704358413233308 -1 0 0
214 1 -0.1203334414257947 6.708667810071606 41.623788019758365 26.64502647975695 -1 0 0
225 1 0.01339728576537826 2.3014066328681064 42.95379681627036 26.79244378069845 0 0 0
209 1 -0.1621349020222546 5.6787558483955385 40.86950158464004 26.06816775775773 -1 0 0
228 2 0.1287138543005142 1.563360931745045 40.434933281704815 27.66243439254346 0 0 0
220 2 0.15589137132384 4.234822777676586 42.65811135375869 25.60412024429131 0 0 0
217 1 -0.3021786249106379 3.538745123165671 43.45871720593031 25.875372969901 0 0 0
221 1 -0.09872978491270516 1.3579479079681502 41.85772243196031 24.53297408857954 0 0 0
210 1 0.2509570469435368 5.758909221710917 40.54069846953818 24.650932725520445 -1 0 0
226 2 0.1416376027281365 2.2904531728399498 42.10272740649275 23.950741183833944 0 0 0
215 1 -0.1603558328766737 6.952117000458568 41.004779965317766 23.977244006403083 -1 0 0
208 3 -0.5227221429340946 4.674531526666749 40.121112629444816 24.05048489158466 -1 0 0
212 2 0.1430883819609761 4.112425904729346 44.29517226700833 26.324023108761196 0 0 0
223 2 0.1584608036638556 3.1926823794774757 43.957803601785706 24.95799054056683 0 0 0
219 1 -0.2938570189679207 1.5846665294886986 44.19856010309987 27.495150572211198 0 0 0
230 1 -0.1092073044085903 2.481258580326751 40.81874271092754 28.17303926712544 0 0 0
229 2 0.1123169623165058 4.396436914275672 43.68216990788252 28.50027167450021 0 0 0
231 1 -0.1203074727742571 4.050543863085904 42.64749608551878 28.693117741225755 0 0 0
213 2 0.1248715397092249 1.1613297366643778 43.88794599820895 28.44061859591955 0 0 0
206 2 0.1292245577200663 6.678602351449289 38.5225717322295 23.271102319373217 -1 0 0
232 1 -0.167913698566007 3.1135270928640804 39.96319707139011 29.150301875994085 0 0 0
224 2 0.1461069509020925 0.77485523507206 44.61746862134049 26.804757709606303 0 0 0
327 2 0.1566523215471091 6.720947227381929 43.96031476842628 23.31850656206893 -1 0 0
326 1 -0.07940623359901178 1.1410536397826019 44.374934008022166 23.017765945407845 0 0 0
5100 2 0.1428606344713019 4.811703791702824 28.910393167518023 32.02210546893786 -2 1 0
98 1 0.2231387478929227 1.2687356436647899 34.16393016451994 29.861352551128494 1 0 0
92 1 -0.1231882436453111 6.472220940366341 36.16394549304809 29.503437333925437 0 0 0
94 1 -0.1699096526005234 0.8521431337086824 35.48706476660046 30.24705721779819 1 0 0
99 3 -0.5080419461523654 1.97778117789919 33.305572380083206 30.686552840872125 1 0 0
100 2 0.163598048195575 3.1157777961035964 31.44292460953221 32.17700929928232 1 0 0
101 1 0.277583625486561 1.4103339068864043 32.85436925102685 31.78904802152295 1 0 0
102 1 -0.1192995348133001 2.0496490839037946 31.685350739089255 32.454209799759525 1 0 0
103 2 0.1750516316443489 6.185233014750096 34.10221312038421 31.760333788211167 0 0 0
104 1 -0.1275285486323799 6.708239972910097 33.322245223580985 32.292178467894004 0 0 0
105 1 -0.07519949138900626 1.3881223328456225 30.908851332045078 33.411212904475164 1 0 0
106 2 0.1380624293926832 1.9264168458701492 30.046306566679945 33.823541636713685 1 0 0
107 1 -0.03786758644264106 6.121188430867538 32.57937683692927 33.34836074319077 0 0 0
108 1 -0.06586011195622452 6.67191406072794 31.264789524449604 33.88180365824597 0 0 0
110 3 -0.4663653034348006 4.177003527047833 33.832521502019155 33.875583964021004 0 0 0
109 1 0.4078561391278218 4.824091777128506 32.8863038179413 34.12344781889156 0 0 0
112 4 -0.4408738112153275 4.555189009371462 31.686523083442246 35.14162996067857 0 0 0
96 2 0.1473116146572127 1.2855679099882087 35.96954375200697 31.177757219623956 1 0 0
244 2 0.2028125664522202 3.6201364706889683 36.21897463462185 33.49474248936942 0 0 0
111 1 0.3967369880786046 5.686565782336981 30.730934410649155 34.918084028460875 0 0 0
116 2 0.2129633621465785 2.4160185577447706 33.563679107483374 35.321979498122644 0 0 0
5092 3 -0.5167584842815662 5.170694761435184 28.880659636242886 29.406854299584218 -2 1 0
251 3 -0.4341840833597232 7.2898279548124725 36.281162201972506 34.5400756391812 -1 0 0
5094 1 0.2632092808001795 6.1005795575585156 28.455736534544403 30.27508917258211 -2 1 0
84 2 0.1602146232234387 3.3426917151208926 35.40422163464305 29.571740111195776 0 0 0
113 3 -0.4687680711905289 5.669308347014229 29.651316973472543 35.42558061926208 0 0 0
5099 1 -0.1471123111692235 5.773673057973468 28.449259644098856 31.71081266086463 -2 1 0
90 2 0.1262523921677416 6.145544120572429 37.18408184392724 29.7925146272249 0 0 0
86 2 0.1425239660111205 4.065175458287163 37.00702866498372 29.83012134711834 0 0 0
243 1 -0.07194521656126031 3.377389861168592 37.18467321752608 33.13158844238573 0 0 0
234 2 0.1296301549128953 2.671661002549291 38.993439178977795 29.40190018407063 0 0 0
236 1 0.2347463428209181 4.217038065674767 40.43128352937568 29.91918390816159 0 0 0
233 1 -0.1416212877464112 4.678860073765298 41.805270268439415 29.64919592124695 0 0 0
235 2 0.1594979354170567 5.527838487723522 42.216371180458985 30.21708596804697 0 0 0
237 3 -0.5002597885147678 4.898093926355255 39.61175292090469 30.78140513531272 0 0 0
241 2 0.1734687663345252 2.709902086950712 40.88894881645764 31.626805836835466 0 0 0
239 1 0.2577913189032715 4.08689928098795 39.165284218061785 31.741917005160463 0 0 0
242 1 -0.1466350890010989 2.8840970342575702 39.872354264891825 32.02349003329704 0 0 0
248 3 -0.4416349264865185 6.7307550844393305 40.83415921429328 33.11072909635381 -1 0 0
238 2 0.1580778805863953 5.267367812960818 37.29593061444061 32.07154452284604 0 0 0
240 1 -0.1428619695074126 4.305935926660304 37.81985506216563 32.290217290653594 0 0 0
246 1 -0.05827250299376302 2.066060984167904 37.81272984752842 33.36865612741963 0 0 0
245 1 -0.05470931022418983 1.8407402546972207 39.1627568397385 32.725563771903424 0 0 0
247 1 0.3920868263196511 7.11172410841277 39.718210306810704 33.29814063229254 -1 0 0
250 4 -0.4555055949702611 6.504375015263191 38.66245741371763 34.26110299476894 -1 0 0
249 1 0.3759205283791662 0.8688881144478154 37.402796913761684 34.16221338540309 0 0 0
252 1 0.1792476746584315 5.2289936286824 38.7482008518119 35.039288902973766 -1 0 0
256 1 -0.1143288262714325 4.248793181587967 39.77848031984045 34.91186325933984 -1 0 0
254 2 0.1844402485761295 4.3721494602254385 40.579642903236255 34.171246836760005 -1 0 0
258 1 -0.08816318943559021 2.9542132884499006 39.620375788243194 35.464294405311165 -1 0 0
259 2 0.1467592426786732 2.1422149724751267 40.37942285439574 35.28326985822622 -1 0 0
118 1 -0.1060333767090112 2.2644649094450378 32.613988274789676 35.900811177545066 0 0 0
114 1 0.1678568937641975 3.228800912829815 31.58237946170754 35.89887378515466 0 0 0
121 2 0.2045552980958144 6.922313675813059 33.31201009343172 36.661541412564276 -1 0 0
120 1 -0.08116092907703649 1.0899928904319953 32.49739541976563 36.71255813607094 0 0 0
264 3 -0.4510831111076492 5.124742736967944 34.662755102888234 37.13742301416477 -1 0 0
117 1 -0.1583843164042762 2.8988485815633407 30.42059509462586 36.64351149588686 0 0 0
115 2 0.228274780213163 3.529799617078761 29.521366324300143 36.64495934676089 0 0 0
123 1 -0.09840800838721023 0.8187683172619195 31.35497583026294 37.54472452964593 0 0 0
122 3 -0.4514025211635229 5.9469228830879555 29.712772112825146 39.46388510216823 -1 0 0
273 1 0.2386474424755324 1.3978518335613477 32.85715257512942 40.3761735123544 -1 0 0
128 2 0.2042993346301019 6.464346410183664 31.32963760092409 38.09144430262504 -1 0 0
119 1 0.1817955000967451 1.7234983577774359 30.279852485194915 37.475105122308825 0 0 0
276 2 0.179526251227952 2.644755777223067 31.133673129551205 40.21614004612487 -1 0 0
272 2 0.1699816957726879 4.2410019810817285 32.06042881168901 38.4516306648621 -1 0 0
274 1 -0.1377921881700271 2.4728583111414943 32.08286733317266 39.765347675084584 -1 0 0
271 1 -0.06836304272771115 3.398680086499276 32.62222006744279 38.841756476459395 -1 0 0
124 4 -0.4157309121832307 1.3606554115961917 28.980837230637334 38.222983127298576 0 0 0
125 1 0.4113342177105965 6.723901303978231 28.835674420270774 39.151238382421674 -1 0 0
268 1 -0.05543046747831608 3.2363385426694613 34.00410236566803 38.45596714985516 -1 0 0
270 1 -0.1269514785226478 1.1260274744416119 34.19140759850754 39.95908958001955 -1 0 0
265 1 0.4098129741871741 4.0810199299724985 34.9723427451476 37.584522581323654 -1 0 0
267 1 -0.03753853133680171 1.9995672594305494 34.70304103242816 38.91187334656668 -1 0 0
269 2 0.1899395254721534 6.840776882394037 34.754229403674614 40.24791103796818 -2 0 0
263 1 0.399262393459492 1.9984700670108249 36.11364098613194 38.32178193231209 -1 0 0
262 4 -0.4139757998117185 3.323794886735492 36.3410147622981 37.45320621475454 -1 0 0
275 3 -0.4890616612594872 0.7137915611689045 32.22585698203014 41.38031944558316 -1 0 0
393 1 -0.1262188323993513 2.1471991796920427 44.63939255757899 41.136918731391674 -1 0 0
382 2 0.1616302585704495 7.1056803644201825 42.86938556750245 38.05575743252648 -1 0 0
381 1 -0.09462496849766849 6.6694773460174135 43.62956197671268 37.473026730297754 -1 0 0
391 2 0.2428520948922064 3.039523150406783 44.099041402496596 41.52960650780524 -1 0 0
253 2 0.2503209614522425 5.680757825371153 36.8919242650954 36.06740013758862 -1 0 0
376 2 0.1653628512408507 1.7460090916653204 43.715188830262356 36.076627309198216 0 0 0
389 3 -0.4227351790477096 4.767359068698458 43.312409856446294 39.929669873811534 -1 0 0
257 1 0.2008056911395973 3.6369796042696505 37.47515456447815 36.59786215995238 -1 0 0
384 1 -0.06156574210185162 5.408820071471229 44.25077224032199 37.79338347942838 -1 0 0
261 1 -0.1084994931515286 2.6640244918573535 38.499095951945336 36.297812525735544 -1 0 0
255 1 -0.137101791765363 4.913551536255904 37.67670860147189 35.93931179312023 -1 0 0
378 1 -0.1263009959986713 0.7659475258299374 44.15690925902568 36.31721470171969 0 0 0
387 1 0.3816725543575929 4.512206991984559 43.9894549719189 38.99433645293406 -1 0 0
260 3 -0.4277218606368268 1.0968144837220397 36.842744006891884 38.53487139081378 -1 0 0
266 2 0.1935081303653229 1.6605907559792792 38.487110216213324 36.72643785979068 -1 0 0
533 1 0.1838970459541018 3.9957528169154894 48.241381278041004 8.215985981188032 -1 0 1
537 1 -0.1056975582665507 2.6520605904104824 47.83953227251284 8.15626433695325 -1 0 1
531 1 -0.1456506781812734 4.606586210962144 48.58660435315931 6.934548926068944 -1 0 1
529 2 0.2094237457376889 5.657367737141894 48.843111877804475 6.889712187628156 -1 0 1
534 1 -0.07001386910303141 1.9476158936397563 47.760218116395386 6.909722906418773 -1 0 1
535 2 0.16821558205178 0.8719773983742318 47.526246650977384 6.920596703775875 -1 0 1
542 2 0.188697164368914 2.1191421003156155 47.56600850292811 9.06160599940928 -1 0 1
540 3 -0.4855710099401773 6.587440752147121 49.969874724829154 9.065851513449282 -1 0 1
538 4 -0.449330233714701 4.7870704414776535 48.383557979579805 9.490486424476291 -1 0 1
541 1 0.398907971516838 6.124603458777036 49.09797654946772 9.713859405301829 -1 0 1
402 3 -0.4413587861510343 5.80640547733354 45.43731055404781 6.859452507120573 -2 0 1
410 2 0.1797713693366762 6.171078165855461 45.12901594918684 9.754204535507736 -2 0 1
532 1 -0.08935531707938763 2.5818213089445017 48.10267279206336 5.67866274049716 -1 0 1
528 1 0.1731973377558322 3.892085065301297 48.642734061916215 5.708215877842183 -1 0 1
571 2 0.1748969073544087 4.142018978764652 50.875433817151105 8.31593576584736 -1 0 0
573 2 0.1376644646597153 3.989141942379757 51.92664676032595 10.347184766837552 -1 0 0
566 1 -0.2721206720929946 4.594422121084072 51.89999457766645 8.005511644566333 -1 0 0
558 2 0.1677084656837687 5.299164640132494 51.752654295340946 7.1887186670368415 -1 0 0
570 2 0.1630761301005534 5.232090917926908 52.17580901872673 8.936752847090943 -1 0 0
395 1 0.1933781203885452 1.1408451110765274 44.89339815264373 4.270397214588571 -1 0 1
404 2 0.2086628546623071 5.627607044952491 45.629817553429895 4.402615998264813 -2 0 1
524 3 -0.5042556662359874 6.679937708227189 50.14244034609685 5.1841664231685085 -1 0 1
530 2 0.2065549451334186 1.9775748650758367 48.05888518490694 4.7192364206832975 -1 0 1
403 1 0.3843199667376019 6.8307065847929325 44.84006053505725 6.826634251576566 -2 0 1
526 4 -0.4478018278022978 4.444276890047821 49.32782679978827 4.454016620009082 -1 0 1
523 1 0.3843385941908166 5.860204195384096 50.01170878985379 4.3568267376130185 -1 0 1
565 2 0.1829915448849324 1.7853546385735717 51.63095057662128 6.959920801438429 -1 0 0
575 1 -0.09932534991920117 3.058120854916273 52.440137871594516 10.225149616452104 -1 0 0
556 2 0.1461761865017721 3.1369857257862725 51.96487732473274 5.7754466885978815 -1 0 0
563 1 -0.3001115038451009 2.5129239883228545 52.3748211470878 6.572019745716922 -1 0 0
569 1 0.01140551767461337 3.4470647689889566 52.94017431917237 7.739623607929827 -1 0 0
684 1 -0.1152180656486388 0.8312601575948269 58.455232151447106 4.415171984107114 0 0 1
698 1 -0.1484503918538067 3.517691647195597 60.302061120609835 9.835772941523416 0 0 0
572 1 -0.0002242383841762896 2.6866875656653066 53.12616796230403 8.990301518547746 -1 0 0
689 3 -0.5029210595760558 6.0367361620418 57.8639659799759 6.291941497054411 -1 0 1
562 1 -0.008620531980998731 4.162886724398065 54.224288619669494 7.396446528154151 -1 0 0
555 1 0.2551598308604701 5.643304181088413 56.672566308366 6.72315650602257 -1 0 0
564 1 -0.1200590871296705 5.039911090350697 54.320428125945 6.252260231777285 -1 0 0
685 1 -0.06487570194382886 3.058928426214116 58.79024145803213 6.28797679233204 0 0 1
688 1 -0.1565754306095653 1.822226751531041 58.2215832232107 6.699344266057554 0 0 1
560 1 -0.1794634287121743 5.784589511684057 55.48183285413769 5.928978235754741 -1 0 0
687 1 0.2253119248166797 0.7382870641592053 58.01869365295228 5.77985409123195 0 0 1
682 1 -0.04572260355629128 3.2115676104827915 59.24417681535121 4.896784211134167 0 0 1
690 2 0.1311816514882008 1.7142736346936491 57.8744387822551 7.724159453313806 0 0 1