LAMMPS data file via write_data, version 19 Nov 2024, timestep = 2000, units = real

5160 atoms
4 atom types

0.54571844594801 7.45428155405008 xlo xhi
22.238026672387292 303.76197332763115 ylo yhi
3.137198916146083 42.85280108385314 zlo zhi
0 0 0 xy xz yz

Masses

1 12.0107
2 1.00794
3 15.999
4 14.0067

Atoms # charge

308 1 0.2257699512086569 1.2169651970851727 26.198254836795144 6.77163752171311 0 0 0
307 2 0.1329644516242723 3.2575261082805795 25.34620958896749 7.29244311675814 0 0 0
306 3 -0.5268644280976236 1.4509813171772326 26.33951988225575 5.429037960716969 0 0 0
309 1 -0.1625700785213514 2.238349014414636 25.746741097014443 7.699291402062611 0 0 0
310 2 0.1541627233016864 6.066776242462173 26.80933456775388 6.637323663336305 -1 0 0
311 1 -0.1485068864866445 6.863262988487749 26.535875963442617 7.311971171194212 -1 0 0
305 1 0.2409148094077222 2.6115520441031115 26.963516162815964 5.214684455918757 0 0 0
314 1 -0.04664891448896653 6.745208064413698 26.814657452790044 8.74399023688602 -1 0 0
301 1 -0.1437066055388271 3.187294073953817 27.23335326367334 3.91107973681251 0 0 0
304 2 0.1818606367816435 2.8537269425967184 27.637659485726616 7.341086130705429 0 0 0
299 1 -0.1012037992596915 4.175383639306061 28.22124596418111 3.7048898462929802 0 0 0
302 1 -0.1524851965195171 3.1777030085009215 27.761556064551986 6.344061705880495 0 0 0
317 3 -0.5113371638653333 4.561636517231646 27.67336010198567 9.090178931381324 -1 0 0
152 1 -0.3157726496735614 6.444502359746004 23.116894731117053 5.73259952426991 0 0 0
157 2 0.1559499105184508 6.970921050876082 23.93916299582611 5.258095089820159 0 0 0
300 1 -0.1066864116627439 4.083986653149605 28.78840644426458 6.104446683862363 0 0 0
296 1 -0.01652258342234049 4.660680422862993 29.064013617579157 4.770982443696822 0 0 0
292 2 0.1501116925938356 6.869436635085642 27.86942652072071 3.622270637365138 0 0 0
298 2 0.1328224740352853 4.425524848919359 29.418669139220874 6.964969121357701 0 0 0
286 1 -0.004641626064752803 6.61504319326817 30.083235391703646 3.432184792370743 0 0 0
291 2 0.1561221034352062 7.116138482113491 28.7994947469439 5.912336664380691 0 0 0
293 1 0.01830547205050262 5.793217594674023 30.115779373935567 4.6879335987665565 0 0 0
287 1 -0.309389015951923 6.836847380968294 29.85591298318542 5.830807270153966 0 0 0
289 2 0.1308152249706861 6.355037683791546 30.02247111202118 6.80747128186433 0 0 0
280 2 0.1340048648335794 0.8179935613324341 30.50788002137369 5.7215738792457165 1 0 0
156 2 0.1306431252909876 6.455616391327438 23.356300498426876 6.839323743708661 0 0 0
151 2 0.1194824362087486 2.1960952225496757 22.36480384094066 6.121978342294392 1 0 0
144 2 0.1145171516097658 5.405407618549247 23.22296352496591 5.415104758208978 0 0 0
316 1 0.3934062174358432 5.577990583481049 27.282486008462158 9.59085411559246 -1 0 0
312 1 -0.05341310462138043 2.1337863132378327 25.855128333021852 9.100952594272552 0 0 0
315 1 -0.0484569344941353 0.9142032925797279 26.389612101755432 9.704494679036886 0 0 0
313 2 0.185446411296416 2.921302260490438 25.47909654832363 9.746776311775022 0 0 0
430 2 0.1400955397116312 5.333618847754696 36.757859801087484 3.652554409805273 0 0 0
441 2 0.1430898672807943 1.1768643451630676 35.300933082176684 3.554045683078393 0 0 0
295 2 0.1215794608481212 4.252980134572244 31.412493838015095 5.651448465915205 0 0 0
290 1 -0.310112920884631 5.09043158563098 31.52046310569056 4.91605998859228 0 0 0
294 2 0.1373747862999602 4.647668529848914 31.98195992312582 4.0226410545248825 0 0 0
436 2 0.1229153267401399 3.533148552334689 38.00915609484103 7.089416270621363 0 0 0
444 3 -0.531616252720427 7.416534698495898 34.71220036515385 5.881331480524221 -1 0 0
448 2 0.159013994195265 5.10147333443751 34.587650010268874 6.954778200185515 -1 0 0
443 1 0.2590008405567888 1.510977070018574 35.55560327171116 5.682721309890252 0 0 0
447 1 -0.1554229110556377 1.389932620922444 33.40831774706436 7.78798066167297 0 0 0
451 2 0.1547582943925888 1.9506731277364164 32.356130010169544 9.626899911141457 0 0 0
450 1 -0.06774633683946446 1.1404715768004732 32.84523483541685 9.052042480337906 0 0 0
452 1 -0.05098965757457287 5.605413395108288 33.66736013898373 8.885985541584532 -1 0 0
449 1 -0.1333750000976621 5.9021383964479 34.17066621786322 7.580048994203127 -1 0 0
453 1 -0.06034144614626611 6.725032439450847 32.94181071093416 9.61862755805016 -1 0 0
445 2 0.1404917214298543 2.3646257507357786 33.35750689738943 7.346091632369808 0 0 0
446 1 0.2428189737692095 7.222003524591391 34.096788571906096 7.0863622433517275 -1 0 0
439 1 -0.1422931234416022 1.637288456002686 35.930365670664386 4.27348299700364 0 0 0
440 1 -0.1537638403048581 2.2776727927353067 36.332622178600495 6.686617106707402 0 0 0
442 2 0.1717116879104602 2.1562521925410802 36.12684943015314 7.773614880497397 0 0 0
434 1 -0.01006168685151416 3.164177265203999 37.78687151373232 4.858166699527677 0 0 0
438 1 -0.1056048280953776 3.0304546026695194 37.421145516924085 6.273594308933288 0 0 0
282 2 0.137920502539129 5.86781347963102 32.146831915832045 5.423644548397943 0 0 0
431 1 0.01457285434211508 3.8980957155265017 38.95025238803646 4.360141774750962 0 0 0
429 2 0.141262550666456 5.71805587843732 38.484384349676304 5.519494953966113 0 0 0
437 1 -0.1103085379048746 2.442074573635976 36.99438695191077 3.858078979477285 0 0 0
427 2 0.1158186142556296 4.719354342860941 39.729459893064245 6.350801368640985 0 0 0
425 1 -0.3097981598312164 5.092963663057593 39.352348406400225 5.34831066340961 0 0 0
320 3 -0.4253990214021913 1.1513968316762888 26.210092506433707 12.051915900290922 0 0 0
318 1 0.4028126278094241 7.325526382916047 26.445020720824996 11.135511063729627 -1 0 0
321 2 0.1953596704932352 3.510444428450136 28.404646177839414 10.903888887181687 -1 0 0
323 1 -0.1001230920204276 4.086578558409734 28.623314993307247 11.816913259648112 -1 0 0
319 4 -0.4119705745619419 5.827106605348735 26.986287079263107 11.104733835402564 -1 0 0
322 1 0.1862974751877755 5.213574246107323 27.811364499655028 12.16297467944528 -1 0 0
325 1 -0.1369080364537433 5.846840213802007 28.151727535477427 13.432574615869552 -1 0 0
324 2 0.2092237216579793 6.780322746486696 27.66846200508929 13.675915023824137 -1 0 0
326 1 -0.08046302140952355 3.4006015447390303 29.445788872855662 12.758273692724707 -1 0 0
328 1 0.1763029023751654 5.305118143036772 29.060268886688867 14.371567160750692 -1 0 0
329 1 -0.09015941628740495 4.060455818776534 29.63347875565426 14.005580772481144 -1 0 0
192 3 -0.3948027512952828 7.396102047018694 23.423414444257475 12.62861812360651 -1 0 0
195 1 0.3823362552633304 6.6833382320529235 23.716992611616153 13.52951879354386 -1 0 0
327 2 0.1812035545075472 2.475221583154671 29.899248425421302 12.564378157848349 -1 0 0
200 2 0.2068700088320372 2.463224713560929 25.087556558803648 14.110716019792617 0 0 0
193 4 -0.4147581554824742 5.164073656823562 23.321318266641445 13.859963255006166 -1 0 0
198 1 -0.04193748914748119 7.238766594327877 24.628820597034014 14.609327399892775 -1 0 0
331 4 -0.3996933940887978 5.917639417169703 29.55547325281479 15.699047327527584 -1 0 0
201 1 -0.03681276532366984 1.6241491470107297 25.29616286273789 14.791889296433347 0 0 0
197 1 0.3829453472238912 4.948006909412207 24.020332919295942 15.190050878213544 -1 0 0
199 1 -0.07334271661122028 6.141943475388191 24.921377028361622 15.590009475991305 -1 0 0
196 3 -0.5183923815959774 4.001691560713569 23.8153012477929 15.915107653673955 -1 0 0
332 2 0.2053209767102058 3.575873438434164 30.309746554276543 14.759713956228454 -1 0 0
333 1 0.3941512444949292 7.210415579875812 30.457629617100118 15.729207244876497 -1 0 0
330 3 -0.4395194077088512 0.9214026723483029 30.88850702220917 14.797363174357587 0 0 0
204 1 -0.1492837961058125 1.817704543938809 26.209049382145544 15.845565729590946 0 0 0
206 2 0.1772285791993689 2.782488536649948 26.68698986870201 15.968863258765364 0 0 0
455 3 -0.4501999515492155 3.5989263929117072 34.56663099436541 9.837012052142324 -1 0 0
454 1 0.3770278334460765 4.458193712812996 33.71624571144762 9.875096750013252 -1 0 0
458 3 -0.4452500418055592 6.885301879850913 31.812280393903936 11.728503617105586 -1 0 0
456 1 0.3806551583168146 6.229277157164227 32.474949014158305 10.98362192881914 -1 0 0
583 2 0.1551304802232464 5.446878220608993 39.535741432195024 11.151941457497731 -1 0 0
467 1 -0.1084995940247329 2.9369306465849205 34.17938357376386 14.915286500452698 -1 0 0
459 2 0.192705564645634 2.13591598263218 33.434312727678666 11.638695029090355 -1 0 0
461 1 -0.09006681017889151 2.724078973668772 33.49260952863181 12.542993234865653 -1 0 0
460 1 0.1771819679118002 4.095701723646235 33.17228342582507 12.460571205277596 -1 0 0
457 4 -0.4244590677499097 4.703869148642316 32.83511424005635 11.087696992961149 -1 0 0
463 1 -0.1350774656960944 4.8078412004104205 33.39847363039559 13.67671500131523 -1 0 0
462 2 0.2047395616214392 5.883508206957762 33.15240741778789 13.58991706731068 -1 0 0
465 2 0.1787813240784289 1.0879382812207319 34.186903706807264 13.77660985187556 -1 0 0
464 1 -0.06287371945806396 2.1238815535320703 33.97118820756791 13.762161318035679 -1 0 0
466 1 0.1726445826809028 4.328739724585462 33.93221176247317 14.911863736506065 -1 0 0
468 3 -0.4424813601445255 6.381219604529481 36.29465352898626 14.472717057777631 -1 0 0
471 1 0.3836528454410558 5.946884375483878 35.941272755952824 15.520080211935815 -1 0 0
469 4 -0.4331671225142688 5.14716699372575 34.65965863971477 15.994002490064434 -1 0 0
470 2 0.1924141251340081 2.411928572165114 34.52648184195798 15.826104886005243 -1 0 0
589 2 0.1662490253235805 3.8361797021321395 39.234483306535154 13.02507600435079 -1 0 0
476 2 0.1826753635525425 7.015878308590689 38.65143980110224 15.856534524712222 -1 0 0
228 2 0.1203336579375054 2.1538887270485194 26.567422128793975 22.40431736898646 0 0 0
98 1 0.2266092452418325 2.2875450726636295 22.689911132517565 22.593780595321867 1 0 0
225 1 0.01568709156102563 4.831384661461588 27.193096926719296 21.843016347708332 0 0 0
212 2 0.1162856225274471 6.087960563870553 25.530266052774977 20.955133063790505 0 0 0
91 2 0.115239752467359 2.3435639254882243 23.793242158112854 19.29245282862635 1 0 0
86 2 0.1412270284247058 7.214758206523105 24.10171510374787 17.96407805268035 0 0 0
226 2 0.101911207509144 4.239120828459184 25.25770480940612 20.06914330000982 0 0 0
215 1 -0.172700797418865 2.6918711462887157 26.172791657994832 18.79746678452031 0 0 0
218 1 -0.005913673115700371 3.83754359612557 27.303153392183326 20.736054359039343 0 0 0
210 1 0.261109728587235 1.9038421471787703 27.348024397413567 18.598426024483377 0 0 0
216 2 0.1360172701102725 2.5844733048176134 25.309582573705036 18.116259649721318 0 0 0
208 3 -0.4914697435755035 0.8717610366703152 27.46384536250509 17.736754955885843 0 0 0
203 2 0.165773118875339 5.500000581559952 26.204167708731028 17.265535813300474 -1 0 0
202 1 -0.1407357408281371 6.327501470298802 25.93722013672724 16.59135266664137 -1 0 0
205 1 0.2560363782534996 0.7049610794280015 26.553335012867624 16.76511855693301 0 0 0
81 1 -0.3128274228228952 6.425989410744478 23.523871701703587 18.364749641668134 0 0 0
75 2 0.1659233227579373 5.519956155561573 23.50056253749682 17.74343532286805 0 0 0
223 2 0.1413052003684436 5.060925481583155 25.040574697820855 22.327430038154553 0 0 0
221 1 -0.1178720763687908 3.585854504509212 26.136534730921507 19.91098927219279 0 0 0
209 1 -0.1158840266896753 2.061057301619037 28.465468394518336 19.47453760601764 0 0 0
214 1 -0.1154600953478329 3.026922568407019 28.46851691056107 20.526185679717003 0 0 0
84 2 0.113068351111983 6.061418791721574 24.072513000485998 19.27384938263022 0 0 0
93 1 -0.118532429980075 1.9496826976352775 23.200574879351148 20.12305389035918 1 0 0
95 1 -0.1545943867339692 2.6090258848700354 23.368214074563607 21.381918112953898 1 0 0
207 2 0.1733854213467388 1.4217653009819946 29.347631462843584 19.331656021169685 0 0 0
334 3 -0.449866826429144 3.982406046888563 29.80156030333237 17.114899529240688 -1 0 0
97 2 0.1248171244471274 3.434188171671858 24.060063275879507 21.386867667184696 1 0 0
217 1 -0.3128559480089216 5.685823578070492 25.833746469820273 21.962377421960237 0 0 0
211 2 0.1268393265474486 3.1668747158174573 29.37213387180182 21.153139235990757 0 0 0
219 1 -0.3093040219858092 5.830596877446573 28.358545368286883 21.552122291240316 0 0 0
224 2 0.152180467328892 5.355286154665652 29.180054336579516 21.030456314770696 0 0 0
213 2 0.1249777793325766 6.436946806791282 28.592582779437574 22.419666538629023 0 0 0
335 1 0.4022086558652908 5.114779102204784 30.074645394038562 16.871186806701065 -1 0 0
222 2 0.1376348507836022 6.652656309353862 28.044825943995324 20.932560334242336 0 0 0
337 1 -0.03754805464026115 5.987993093343093 30.929030815990103 17.797791805922913 -1 0 0
220 2 0.1251674021314665 6.544205184994183 25.909250540328642 22.67341375139323 0 0 0
82 2 0.1406425263209174 1.8765856631517377 22.30784005640347 17.542764210677724 1 0 0
89 1 -0.01202525386010644 0.8490211317256844 22.259514054246257 19.984609438888576 1 0 0
345 2 0.1578313712042406 6.732113851579148 34.93984571196876 20.030352793543386 -1 0 0
363 1 0.0235600313759767 3.0459067204815335 36.878089288912165 22.92665007508046 0 0 0
359 1 -0.1016237788849561 2.4633658394510434 34.36688539316097 22.824702983757575 0 0 0
478 1 -0.1410627264250615 5.123931082139261 37.094163579742855 19.020276422231554 -1 0 0
357 1 -0.3007335683923331 3.0810257341660963 37.99316649018385 21.79690233333503 0 0 0
336 1 -0.03946726165208299 7.317399843658647 31.110696633506244 17.09884536205828 -1 0 0
351 2 0.1465067351647509 3.4915174451866977 37.6834574647756 20.84506373482594 0 0 0
344 2 0.1782861767340001 1.781644658416288 33.28861394162584 19.399985584603602 0 0 0
362 2 0.1506166162556238 3.6450990468596336 38.87457157703781 22.156249335986914 0 0 0
339 1 -0.05890542553342104 1.3438797766792496 31.97687921979226 17.760583520669833 0 0 0
349 2 0.1446151163083448 1.2372712173768776 36.829083616346615 20.686896600124 0 0 0
481 1 0.2429858716275202 5.795580116493626 38.35708904482176 19.136631653155593 -1 0 0
340 1 -0.1281592157208927 5.721353676286334 31.6185461786309 19.034346784993602 -1 0 0
338 2 0.1862190948092422 2.2525688464292193 32.22890226037451 17.23330204786189 0 0 0
352 1 -0.1016788746068959 1.3705160613609606 35.85744385976049 21.20090913392037 0 0 0
484 3 -0.5327597513724225 5.964395046713405 38.868470238726246 20.406754796828974 -1 0 0
480 1 -0.1548952731431802 6.403183860498995 38.921694612031715 17.965043747915047 -1 0 0
473 1 0.3933376990271738 4.430863124889298 35.04172834426734 17.280562879920055 -1 0 0
348 1 0.2364001658586519 0.6444509353168102 33.5072124193602 21.463531978094323 0 0 0
477 1 -0.06500182960220718 6.461155345227661 38.24069675311435 16.69508533994056 -1 0 0
342 1 -0.1529053231939677 1.0675801975145318 32.592282340560494 18.999957239686925 0 0 0
475 1 -0.04756621357175658 5.02924004377483 36.3868578921124 17.77781327789624 -1 0 0
343 1 0.2631502915722895 6.736532620631473 32.33479545577312 19.712964939224687 -1 0 0
341 2 0.1673252452812753 4.723696574740991 31.538301780809444 19.48314224638645 -1 0 0
479 2 0.1482955677746991 4.576930751813909 36.67374627071786 19.87162713575952 -1 0 0
353 1 -0.1547066102395897 1.6723680501529736 33.25809804648053 22.422706682480094 0 0 0
356 1 -0.01092414466697604 2.336371241210683 35.702315128708904 22.296720030518202 0 0 0
346 3 -0.5147288486936245 6.670747461052793 32.55142276320958 21.00371863070358 -1 0 0
360 2 0.1407710687425244 2.0990825492920697 38.39890760298683 21.49627120407603 0 0 0
474 1 -0.04037279391814454 5.819305093644832 36.97498309732913 16.66147119915091 -1 0 0
472 3 -0.4936013343869982 3.4402268018612547 34.55195072848468 17.771377926716646 -1 0 0
347 1 -0.1555722085472992 7.412344973170607 34.79540074521873 20.84257607894149 -1 0 0
358 2 0.1424124933881175 5.056699640561085 35.79329028917672 22.498645633605335 0 0 0
354 2 0.1427142363857218 1.7552573173808108 32.276258652885005 22.899675949870524 0 0 0
103 2 0.1574258304171512 1.05628776589729 23.549048916067623 24.782260578479868 1 0 0
234 2 0.1368724924906175 0.9972241188726196 26.86041419335872 24.694143633440806 0 0 0
230 1 -0.1083292310049179 2.708660486611878 26.93050793582919 23.28256151947945 0 0 0
238 2 0.1652115603640467 2.0471803254772176 25.529888021034427 27.116268344443434 0 0 0
232 1 -0.1519128538003265 2.0567128990342534 27.081495138730237 24.53239703222121 0 0 0
240 1 -0.1418872696165211 1.7141426678993068 26.15304481745396 27.915982510577447 0 0 0
110 3 -0.4712037330459454 6.293439369674636 23.835800795500916 27.197514846868494 0 0 0
244 2 0.1629040644286227 1.5684513422552948 24.41489958700155 29.27341058431229 0 0 0
104 1 -0.155720478768859 1.7157546577378737 22.94883889276055 25.405027928131467 1 0 0
109 1 0.3862940012391335 7.137126842484496 23.057484574290807 27.548684801672955 0 0 0
243 1 -0.07690381084608887 1.4753102164310854 25.500053671525638 29.146405116010435 0 0 0
99 3 -0.5176058951890777 3.260806992206249 22.529934664971794 23.584018338252104 1 0 0
227 1 -0.004507218411079542 4.1077824599241275 27.318426169353746 23.160868982637076 0 0 0
116 2 0.1883622576740295 4.835938049940649 23.748701048942696 28.893245298900716 0 0 0
239 1 0.2574367588115529 1.6541939178832858 27.596665550406478 27.811199814136575 0 0 0
107 1 -0.07014735994122615 1.448389480871555 22.625663174130427 26.766892081565388 1 0 0
236 1 0.2514418237419253 2.7269083310840494 27.70155879292406 25.658636446114972 0 0 0
237 3 -0.5033819198012559 2.057122812329883 28.258608939005065 26.7079058444924 0 0 0
101 1 0.2723474357735522 2.955460164667558 22.405915186049004 24.846550784721433 1 0 0
233 1 -0.1249787751193302 4.170555930758711 27.8588112492527 25.60035335122582 0 0 0
231 1 -0.1001893754228519 4.851871663568012 27.695171661163897 24.388144545047513 0 0 0
242 1 -0.1182545271101544 1.1147290096620637 28.35884945534701 28.919667062957984 0 0 0
241 2 0.1862188348658958 0.8924753740354657 29.445987217918784 28.818494141938466 0 0 0
229 2 0.1195832190210243 5.965176088422229 27.80483716271872 24.281370124528593 0 0 0
235 2 0.1610919868017189 4.726735279049901 28.138165945714757 26.53692078700693 0 0 0
112 4 -0.471943408824172 7.242376911428989 22.34647847060265 28.88772823539338 0 0 0
372 2 0.1358920403520146 6.333512294525423 37.114770091039134 25.940349729528688 -1 0 0
350 2 0.117920915292158 4.63887253836407 35.91388024865575 24.210496865497664 0 0 0
374 1 0.2458444880965833 1.1685325266291993 38.28456987994623 26.53986704703861 0 0 0
378 1 -0.1543631045804075 2.443076494790775 37.02626507347272 28.50253604849491 0 0 0
370 1 -0.1559106773757771 7.332489849655762 37.449636982392924 25.637208201877577 -1 0 0
368 1 -0.119669775910171 1.057954487812017 36.98920066821506 24.444551606511688 0 0 0
376 2 0.1343562069055999 2.654732595006143 36.71070063916767 27.445265946619934 0 0 0
365 1 -0.006029042705852142 2.370619043788672 37.465399585727894 24.109290043832384 0 0 0
377 1 0.2634314775740134 1.3024212339435026 37.919187557719155 28.764861764969563 0 0 0
364 2 0.1204168368270569 3.1726494107863927 34.170398159741744 23.669621703375103 0 0 0
366 2 0.1298094872986937 7.4457701717665925 36.228199178778965 23.88248763540418 -1 0 0
369 1 -0.1092537967751319 3.0409678237870623 38.459789610622394 24.953007564668052 0 0 0
375 3 -0.5116306160589957 0.5906614963548663 38.41747874063823 27.751171604090953 0 0 0
361 2 0.1284070274598823 5.256907477227415 37.32590040299954 23.301430488623364 0 0 0
371 1 -0.1608537992931398 2.459988881650937 38.86481563272304 26.134045837279654 0 0 0
367 2 0.1187836769095484 4.000021106313138 38.90487722595864 24.57374760836934 0 0 0
382 2 0.1511487892628963 4.035703292572997 35.81869005306821 29.342932832731268 0 0 0
355 1 -0.3032850374464202 4.559529670090606 36.4459733702385 23.246846834854075 0 0 0
381 1 -0.0680673970478515 3.1999098368111256 36.505910461634045 29.550840155974313 0 0 0
373 2 0.1521877406692118 2.889755205740744 39.61816469123494 26.769531088407234 0 0 0
128 2 0.2337892292248534 3.706447200072168 22.682779043802878 32.98104301030783 0 0 0
118 1 -0.1140220239231031 5.106620054240148 23.275047659721412 29.8791480774408 0 0 0
120 1 -0.06124985415242824 4.190810050608793 23.32994861077015 30.959941002448303 0 0 0
121 2 0.1757625920782557 3.2669905735398053 23.879262989207255 30.82417153788092 0 0 0
251 3 -0.4308326172674954 1.5093803165451276 24.79349245266396 32.224725892708335 0 0 0
249 1 0.3894741030783295 1.1499426974409108 25.859597991714082 31.767253153329293 0 0 0
250 4 -0.414756390256931 1.01020594979625 27.178247568560064 32.58630364581869 0 0 0
246 1 -0.06139187292803631 1.0853758550148926 26.27992153863755 30.298098841448002 0 0 0
252 1 0.1702332502454134 1.3329371054257941 27.349751133723622 34.09957621379047 0 0 0
247 1 0.3769700818950424 0.6672945692666272 28.298613018259548 31.61710515354663 0 0 0
253 2 0.2181636836426394 3.242318698691587 26.550252444544558 33.85694897667811 0 0 0
245 1 -0.03136992291815824 0.8989881810151397 27.788236257413118 30.202816714068266 0 0 0
248 3 -0.3950414475840318 7.237741766955961 29.47140791910855 31.75943512806187 -1 0 0
254 2 0.1733466780265253 6.285367811914944 28.255632648393828 34.570206401509736 -1 0 0
255 1 -0.1335523869515801 2.5128874144212485 26.827336069694805 34.67504023690775 0 0 0
256 1 -0.1103611497288636 7.228563370124082 27.816561410440684 35.00178291406392 -1 0 0
264 3 -0.4166311038543156 5.098008418371875 25.224896452171375 34.43004653731994 0 0 0
272 2 0.1979080922526618 0.8372317561913601 23.613000644440337 35.26193023296475 1 0 0
265 1 0.3953320064023626 5.154600613185907 25.322726487574535 35.621769906147016 0 0 0
123 1 -0.07982319695724138 4.413018931780082 22.692681765480813 32.21049316382157 0 0 0
114 1 0.1835600332236021 6.310683886949904 22.502498128872176 30.034958367836996 0 0 0
257 1 0.1800159618445907 2.787841255809996 26.61643314991167 36.042136533597535 0 0 0
547 1 -0.069359419422344 3.9839776444297397 38.66907187816429 35.76714025499888 0 0 0
379 2 0.1901913774946333 6.99832886622138 38.97568902467488 30.26320772621928 -1 0 0
386 3 -0.4201606963868345 0.5625812921860153 38.54940100747446 33.18249281323885 0 0 0
380 1 -0.1126233374170044 0.9346878075385973 38.31753483605159 30.106662727546837 0 0 0
384 1 -0.04469844060273925 2.8742541985874124 36.84667487011343 30.93760815655487 0 0 0
389 3 -0.4179002085465769 4.144182123505512 35.39163196541449 32.35902103307454 0 0 0
387 1 0.3971786915856731 3.403037995327023 36.33982980495062 32.22203800736797 0 0 0
388 4 -0.4225231396555901 2.585049226204714 36.91698024811349 33.37356943820481 0 0 0
390 1 0.1967971974930396 2.5090399135654806 36.14184969211562 34.61582346363595 0 0 0
391 2 0.2511731855676878 4.235907098433699 34.78641353233127 34.31134629168496 0 0 0
385 1 0.3850077851064582 1.414096473188275 37.861325301556036 32.67679721709523 0 0 0
383 1 -0.02776784335573323 1.6211737965718243 37.70360947989898 31.192583948461028 0 0 0
402 3 -0.4146975298427417 6.601464191530041 33.98392947931633 35.041910950541535 0 0 0
393 1 -0.1300356999521527 3.4051608664029294 35.03418378126277 34.99350047688068 0 0 0
392 2 0.179992668618573 0.7205585606943112 37.208259879817724 35.3963281951955 0 0 0
394 1 -0.09587636438379868 1.4730381184967352 36.441613454929765 35.56748055017769 0 0 0
548 2 0.1836315402167944 4.3875521547704235 38.75068289258745 34.78107024617748 0 0 0
410 2 0.1736409970474117 1.4648674227630911 31.74473212339724 35.403114298351994 1 0 0
544 1 -0.04622068114181752 2.7939719839568333 39.34515748625316 36.190266574983326 0 0 0
403 1 0.3706990377109253 6.052757892161917 33.44184529551243 35.95645374732922 0 0 0
140 1 -0.1579632462648478 6.811726908575309 22.63921827979535 41.32681497962409 0 0 -1
303 2 0.1488243872851167 2.880831394111869 26.620434947584325 42.76677271357592 0 0 -1
139 2 0.1525120242715624 6.027616588035803 22.78578371141885 40.62833503602105 0 0 -1
275 3 -0.4882122312828502 1.7228108359765844 23.087689762450495 39.745232773245746 1 0 0
271 1 -0.06135247831666177 7.385775257014475 23.80145289035495 36.256253190901866 0 0 0
147 2 0.1465153333111555 3.3431511303204267 22.937305713006694 41.795980572555095 1 0 -1
274 1 -0.1154744447497245 1.1926988206287472 23.272290876862932 37.37243300350728 1 0 0
258 1 -0.085864509227064 7.388579980410146 27.554668724797665 36.38909561852171 -1 0 0
260 3 -0.4431633883501278 3.905449414495147 25.898492350223794 38.992180358013336 0 0 0
285 2 0.1560136785635868 1.1770021796715464 27.500602344217725 41.30397105013148 1 0 -1
270 1 -0.146828927078415 6.63653141148887 24.338026595982516 38.981602454835034 0 0 0
273 1 0.2537925852351147 0.8212621204745649 23.47603922561298 38.7677995882807 1 0 0
266 2 0.1989930663294793 1.7750367288464237 26.878615073416903 37.981940767863115 0 0 0
268 1 -0.03182866261996188 6.191310076170561 24.61816360176034 36.483405570184686 0 0 0
262 4 -0.4288079070904156 4.112829148992105 26.069010721521508 36.52667603950599 0 0 0
261 1 -0.1153496202165273 1.6755453534261577 26.987977961096274 36.89273816794233 0 0 0
259 2 0.1512508593722869 6.626154089860946 27.897627052154714 37.13762936905923 -1 0 0
267 1 -0.04701634805387633 5.792338704537076 24.848764478645 37.89965909962104 0 0 0
263 1 0.3804573331453293 4.484432737855608 25.610062395974495 37.964422371349634 0 0 0
269 2 0.1550338373925008 6.354473524798921 24.584840655404346 40.00085418975625 0 0 0
284 1 -0.1245126592004142 0.9016695506544141 28.549317096523062 41.53586869144267 1 0 -1
413 3 -0.4921826967431838 1.2481268132705163 29.34399563865165 39.32775544124798 1 0 0
279 1 0.2625322279074105 1.116510135224567 29.675254397199687 40.639487248971605 1 0 -1
414 2 0.1609523200132154 2.1014444388527638 29.820818711598655 36.862064098199546 1 0 0
411 1 0.2346833032176319 0.5760574830407923 30.149600984470883 38.466321239075924 1 0 0
146 1 -0.1389737112781098 2.3245797119887635 22.70241470323051 42.00173032150712 1 0 -1
407 2 0.1751169236367841 5.717078921783504 30.603579414100608 39.7289774124161 0 0 0
276 2 0.1900526175735245 2.0693354817731047 22.682903236326393 37.106978215006016 1 0 0
412 1 -0.1342206923501492 1.2218773060307426 30.41714391064005 37.18638223301175 1 0 0
408 1 -0.1425630517246045 6.275661634148216 30.871907647517865 38.79844331465965 0 0 0
288 1 -0.1036701322575418 7.066534631295312 28.757108513958627 42.71776338736436 0 0 -1
141 1 0.2693760170236325 1.2936992351900956 22.91263705952141 40.976086675390086 1 0 -1
297 2 0.1489893222696725 4.562931655527076 28.3938311381815 42.44164055772012 0 0 -1
278 1 -0.1527958274139882 0.7115940099297182 30.98228684146629 41.05517379419453 1 0 -1
552 2 0.1640435215073664 5.446027619525139 37.18846662081612 36.31470114100358 0 0 0
283 1 -0.1135437506035194 7.013658705942448 31.209185585168864 42.33331511785008 0 0 -1
549 1 0.2342073298616415 4.217885108052085 37.653841426432436 38.07475095439253 0 0 0
397 2 0.1539430546915621 0.5727808084974795 35.92706090283264 37.55486939618424 0 0 0
550 1 -0.1310319225890967 4.589796033541433 37.75349969653049 36.71604347462033 0 0 0
435 2 0.1392111490505321 2.564298951003428 37.18584133815814 42.52665390820357 0 0 -1
404 2 0.1843951699479765 2.2477616008463164 34.11998080947966 38.05704824914434 0 0 0
409 1 -0.08649811804959193 0.9364249451580122 31.504061409046614 36.30864203826953 1 0 0
426 1 -0.1128025564858286 5.2459037963252 37.3679932529764 42.4879800042726 0 0 -1
395 1 0.1778247729757744 3.4769373936849437 34.434127886373005 36.27476054690065 0 0 0
406 1 -0.04788891561970109 6.6804321305582315 32.267448250219246 36.639150433340625 0 0 0
545 2 0.1644753675866892 2.6942330738328013 38.134952271967464 39.56960733310768 0 0 0
421 1 -0.1041003331519546 4.374339240560289 39.57281897918152 41.60648530229833 0 0 -1
416 1 -0.1481453531327785 4.673130791008772 39.10847605823763 40.311176650536204 0 0 -1
546 1 -0.1437502511181338 3.0001440611157246 38.31765489484802 38.54743927530916 0 0 0
551 3 -0.4925078467413928 5.04663466061429 37.01509045585818 39.02215477304204 0 0 0
396 1 -0.06368715482100534 1.4188356221675928 35.72317231851789 36.78343657900763 0 0 0
400 4 -0.4354811483324527 4.683707255332623 33.77464692573324 36.796073075326355 0 0 0
398 3 -0.4688050972808966 3.9623507614156384 32.784613314234214 38.96946539684689 0 0 0
399 1 -0.1084509536849131 2.3556772503093404 34.70178379393087 37.13328565628279 0 0 0
277 2 0.1647416304616088 0.9154963241728857 31.794812276158545 40.39714017447406 1 0 -1
405 1 -0.04712072198456792 5.851545220761033 31.872970601693957 37.85282533705967 0 0 0
424 1 -0.01074218665764648 4.5435950957983575 38.63389839851165 42.722735466965936 0 0 -1
422 1 -0.1237861822403401 5.631654018311208 36.935140330327755 41.2087592497584 0 0 -1
401 1 0.4035135476621889 4.645370462877388 32.80153850008949 37.99925715021192 0 0 0
423 2 0.1525798264613693 6.140319990496382 35.962240403687936 41.07819086100489 0 0 -1
417 1 0.2744901980851552 5.192616906306932 37.75710503347002 40.08523579451832 0 0 -1
543 1 -0.06238093419026702 2.2885675955786384 39.14664603276102 37.61993441520409 0 0 0
281 2 0.1245548661478909 6.787649932949056 32.208522197261544 42.62688091671555 0 0 -1
415 2 0.1595852230273164 4.5291393913134455 39.804531155922284 39.50048774779443 0 0 -1
561 2 0.1315512657741853 5.28328034433395 42.40494758378949 6.608389197674889 0 0 0
568 2 0.1547625237983988 4.747770792701625 43.401175220284 8.832703528389953 0 0 0
564 1 -0.1034634965904725 4.822881734046885 44.044953848786314 7.959714756784081 0 0 0
560 1 -0.1528935459948491 5.1462438266377895 43.47049954214839 6.6972264987710926 0 0 0
555 1 0.2487684611447555 5.218851297305373 44.32985733571232 5.542508574338355 0 0 0
562 1 -0.008669157254147365 4.481137392855178 45.460951403809176 8.04404473932103 0 0 0
554 1 -0.1321514183348182 4.984347698384752 45.7268976103564 5.645221280701335 0 0 0
559 1 -0.1160354104267915 4.534028533027614 46.29854133128987 6.872910765693037 0 0 0