 LAMMPS data file, charge style generated xyz_lammps.py by Wenchang Lu 

5160 atoms
4 atom types

0.000000   6.908563   xlo xhi 
0.000000   300.   ylo yhi 
0.000000   39.715602   zlo zhi 
0.000000   0.000000   0.000000  xy xz yz 

Masses

3  15.999000
2  1.007940
4  14.006700
1  12.010700

Atoms # charge

1 2 0.0 13.969540 12.651744 3.685177 
2 1 0.0 14.923678 12.165068 3.481053 
3 1 0.0 15.924270 12.779427 2.624658 
4 2 0.0 18.288379 7.244951 4.559079 
5 2 0.0 14.398423 10.428401 4.676065 
6 2 0.0 17.855043 8.557415 6.754199 
7 1 0.0 15.231349 10.917981 4.089663 
8 1 0.0 17.279597 12.302002 2.723271 
9 2 0.0 18.134323 12.912626 2.356668 
10 1 0.0 16.532493 10.243829 4.002598 
11 1 0.0 18.087162 8.203270 4.059215 
12 1 0.0 17.523198 11.038503 3.282533 
13 2 0.0 17.901432 8.075706 2.974809 
14 1 0.0 17.488065 9.410189 6.164563 
15 2 0.0 19.058896 8.710585 4.194967 
16 2 0.0 18.523200 10.593563 3.254211 
17 1 0.0 16.893909 8.987892 4.757924 
18 2 0.0 18.278533 10.175687 6.039117 
19 2 0.0 16.723027 9.894657 6.823879 
20 1 0.0 15.824149 7.994471 5.103204 
21 2 0.0 16.438264 6.541080 3.656371 
22 2 0.0 14.809964 9.169005 6.724559 
23 1 0.0 15.751103 6.687035 4.459179 
24 1 0.0 14.878733 8.197153 6.212888 
25 1 0.0 14.976342 5.626063 4.984623 
26 1 0.0 14.092214 7.184946 6.763703 
27 2 0.0 14.956058 4.625854 4.565088 
28 2 0.0 13.458560 7.385121 7.621935 
29 1 0.0 14.214065 5.834248 6.203251 
30 3 0.0 13.906009 4.737726 6.920865 
31 2 0.0 15.093462 4.000000 9.140776 
32 1 0.0 13.347088 4.870182 8.145698 
33 1 0.0 14.098902 4.445062 9.294568 
34 2 0.0 11.471682 5.688316 7.520332 
35 1 0.0 12.069614 5.432389 8.412229 
36 1 0.0 13.748512 4.730361 10.647594 
37 2 0.0 14.392642 4.419463 11.453312 
38 1 0.0 11.558026 5.685169 9.738175 
39 1 0.0 12.425391 5.268193 10.897364 
40 1 0.0 10.338134 6.364844 10.331157 
41 3 0.0 9.415660 6.786803 9.659552 
42 1 0.0 11.776108 5.582229 12.253436 
43 4 0.0 10.434151 6.312555 11.862502 
44 3 0.0 12.295106 5.262650 13.265955 
45 2 0.0 7.658984 6.814362 11.835622 
46 1 0.0 9.529039 6.945274 12.897712 
47 1 0.0 8.135278 7.201774 12.717038 
48 2 0.0 11.015881 7.200797 14.438487 
49 1 0.0 9.995464 7.481165 14.139407 
50 1 0.0 7.420900 8.094432 13.596927 
51 2 0.0 6.357767 8.335924 13.376982 
52 1 0.0 9.359160 8.332874 15.106685 
53 1 0.0 8.018755 8.706199 14.723631 
54 3 0.0 12.328527 8.076171 16.067631 
55 4 0.0 10.036500 8.843985 16.343343 
56 2 0.0 7.414931 9.393911 15.327743 
57 1 0.0 11.467752 8.563445 16.764128 
58 3 0.0 8.505614 10.678104 17.318766 
59 1 0.0 9.517703 10.064333 17.297339 
60 1 0.0 11.798333 9.328251 18.057002 
61 1 0.0 10.632230 10.256567 18.314093 
62 2 0.0 13.767755 8.653955 18.776546 
63 1 0.0 12.951813 9.338112 18.901550 
64 1 0.0 10.636738 11.144105 19.452616 
65 2 0.0 9.759442 11.765119 19.727249 
66 1 0.0 12.887754 10.248562 20.009100 
67 1 0.0 11.802374 11.143907 20.253390 
68 2 0.0 13.766362 10.320206 20.671545 
69 2 0.0 13.703375 12.257413 19.075548 
70 3 0.0 11.807508 12.287605 21.112416 
71 1 0.0 13.717667 13.081429 19.786315 
72 1 0.0 12.776080 13.139223 20.898222 
73 2 0.0 15.456773 13.894025 18.764496 
74 2 0.0 16.765755 15.560068 18.325847 
75 2 0.0 14.943683 17.336193 19.453760 
76 1 0.0 14.734781 14.027942 19.591641 
77 1 0.0 12.932823 14.274830 21.791425 
78 2 0.0 12.238349 14.424592 22.627295 
79 1 0.0 17.268546 15.499616 19.300098 
80 1 0.0 15.053233 15.044406 20.587107 
81 1 0.0 15.849716 17.359502 20.075075 
82 2 0.0 18.208876 16.143470 19.253089 
83 1 0.0 14.071823 15.108371 21.662835 
84 2 0.0 15.485146 17.908143 20.984174 
85 2 0.0 17.643193 14.461545 19.549975 
86 2 0.0 16.638485 17.937345 19.674403 
87 1 0.0 16.298053 15.950986 20.428734 
88 2 0.0 14.163333 15.889499 22.441924 
89 1 0.0 17.181311 16.095144 21.694934 
90 2 0.0 16.067581 14.632155 22.878772 
91 2 0.0 18.675854 17.628873 21.002778 
92 1 0.0 16.817156 15.412097 22.941048 
93 1 0.0 18.281973 17.036205 21.833379 
94 1 0.0 17.417909 15.696551 24.193855 
95 1 0.0 18.941316 17.203844 23.092243 
96 2 0.0 17.052047 15.193452 25.046846 
97 2 0.0 19.766478 17.895694 23.097193 
98 1 0.0 18.619835 16.525541 24.304106 
99 3 0.0 19.593097 16.365565 25.294343 
100 2 0.0 21.151676 15.069944 27.014781 
101 1 0.0 19.287750 16.241546 26.556876 
102 1 0.0 20.221000 15.486616 27.411693 
103 2 0.0 17.388578 17.384679 26.492586 
104 1 0.0 18.048045 16.784469 27.115353 
105 1 0.0 19.978374 15.193528 28.746426 
106 2 0.0 20.681033 14.667198 29.343184 
107 1 0.0 17.780680 16.461294 28.477217 
108 1 0.0 18.739903 15.602981 29.332278 
109 1 0.0 16.560854 16.893115 29.259010 
110 3 0.0 15.717166 17.671431 28.907840 
111 1 0.0 18.105021 15.365835 30.677681 
112 4 0.0 16.666104 16.182109 30.598053 
113 3 0.0 18.593942 14.686522 31.517385 
114 1 0.0 15.734411 16.338128 31.745283 
115 2 0.0 16.931700 15.192005 33.087260 
116 2 0.0 14.259665 17.584331 30.603570 
117 1 0.0 15.959719 15.750189 33.032048 
118 1 0.0 14.530347 17.110678 31.589473 
119 1 0.0 15.096985 15.879838 34.185641 
120 1 0.0 13.614537 17.165579 32.670266 
121 2 0.0 12.690718 17.714893 32.534497 
122 3 0.0 13.527779 16.003421 36.948965 
123 1 0.0 13.836746 16.528312 33.920818 
124 4 0.0 15.458394 15.470326 35.542767 
125 1 0.0 14.567929 15.441438 36.814249 
126 3 0.0 17.372445 13.967732 35.086693 
127 1 0.0 16.673314 14.467520 35.907264 
128 2 0.0 13.130174 16.518409 34.691368 
129 1 0.0 15.289290 14.706521 37.943932 
130 1 0.0 16.549909 14.082975 37.349515 
131 2 0.0 14.064321 14.904445 39.739386 
132 1 0.0 15.005254 14.514488 39.332456 
133 1 0.0 17.429689 13.283172 38.182616 
134 2 0.0 18.331519 12.924593 37.669441 
135 1 0.0 15.909254 13.745413 40.122517 
136 1 0.0 17.084187 13.104902 39.536195 
137 3 0.0 15.420962 13.538687 41.397230 
138 2 0.0 17.744139 12.487185 40.174217 
139 2 0.0 15.451344 16.621414 2.623058 
140 1 0.0 16.235454 16.474849 3.321538 
141 1 0.0 17.625989 16.748267 2.970810 
142 2 0.0 18.395422 14.431652 7.816217 
143 2 0.0 14.896270 15.696431 4.798311 
144 2 0.0 14.829135 17.058594 7.125430 
145 1 0.0 15.953598 15.915972 4.572261 
146 1 0.0 18.656870 16.538045 3.996453 
147 2 0.0 19.675441 16.772936 3.790703 
148 1 0.0 16.920536 15.693995 5.663514 
149 1 0.0 17.813904 15.393114 7.976574 
150 1 0.0 18.310679 15.934517 5.226337 
151 2 0.0 18.528385 16.200434 7.832303 
152 1 0.0 15.868229 16.952525 7.442925 
153 2 0.0 17.538679 15.460249 9.076099 
154 2 0.0 19.135381 15.824148 5.940053 
155 1 0.0 16.522674 15.533624 7.074433 
156 2 0.0 15.879343 17.191931 8.549649 
157 2 0.0 16.394648 17.774793 6.968420 
158 1 0.0 15.476247 14.501893 7.390978 
159 2 0.0 15.741300 13.148575 5.642995 
160 2 0.0 14.957090 15.434158 9.410554 
161 1 0.0 15.151085 13.367917 6.513450 
162 1 0.0 14.775635 14.619719 8.668058 
163 1 0.0 14.176233 12.465659 6.906807 
164 1 0.0 13.845147 13.640696 9.069933 
165 2 0.0 14.008419 11.541008 6.383231 
166 2 0.0 13.481562 13.714861 10.086426 
167 1 0.0 13.483194 12.533186 8.229134 
168 3 0.0 12.501233 11.657543 8.540136 
169 2 0.0 11.656485 9.467096 9.912619 
170 1 0.0 11.772177 11.650271 9.681282 
171 1 0.0 11.168448 10.426598 10.170826 
172 2 0.0 11.480253 13.790445 9.943397 
173 1 0.0 11.055502 12.819405 10.138686 
174 1 0.0 10.024529 10.254943 11.042919 
175 2 0.0 9.694231 9.302221 11.367307 
176 1 0.0 9.896949 12.757539 10.977014 
177 1 0.0 9.328809 11.464146 11.414840 
178 1 0.0 9.175997 13.870708 11.787890 
179 3 0.0 9.559930 14.993355 11.817731 
180 1 0.0 7.997930 11.658842 12.232481 
181 4 0.0 7.954329 13.155004 12.550921 
182 3 0.0 7.115832 10.887479 12.436037 
183 2 0.0 5.348178 12.509787 13.660620 
184 1 0.0 7.089519 13.865914 13.549609 
185 1 0.0 5.790442 13.462701 14.071628 
186 2 0.0 8.467777 15.453275 13.738057 
187 1 0.0 7.543904 15.062372 14.160293 
188 1 0.0 5.196161 14.170821 15.159710 
189 2 0.0 4.257556 13.811360 15.606544 
190 1 0.0 6.989592 15.882190 15.204008 
191 1 0.0 5.765971 15.356316 15.722054 
192 3 0.0 9.911266 17.259045 14.338943 
193 4 0.0 7.679238 17.156949 15.570288 
194 2 0.0 5.234972 15.909145 16.489612 
195 1 0.0 9.198502 17.552623 15.239844 
196 3 0.0 6.516855 17.650932 17.625433 
197 1 0.0 7.463171 17.855963 16.900376 
198 1 0.0 9.753930 18.464451 16.319652 
199 1 0.0 8.657107 18.757007 17.300334 
200 2 0.0 11.886952 18.923187 15.821041 
201 1 0.0 11.047876 19.131793 16.502214 
202 1 0.0 8.842665 19.772850 18.301678 
203 2 0.0 8.015164 20.039798 18.975861 
204 1 0.0 11.241432 20.044680 17.555891 
205 1 0.0 10.128688 20.388965 18.475444 
206 2 0.0 12.206215 20.522620 17.679188 
207 2 0.0 10.845492 23.183262 21.041981 
208 3 0.0 10.295488 21.299476 19.447080 
209 1 0.0 11.484784 22.301099 21.184863 
210 1 0.0 11.327569 21.183655 20.308751 
211 2 0.0 12.590602 23.207764 22.863464 
212 2 0.0 15.511688 19.365896 22.665458 
213 2 0.0 15.860674 22.428213 24.129992 
214 1 0.0 12.450650 22.304147 22.236511 
215 1 0.0 12.115598 20.008422 20.507792 
216 2 0.0 12.008200 19.145213 19.826585 
217 1 0.0 15.109551 19.669377 23.672702 
218 1 0.0 13.261271 21.138784 22.446379 
219 1 0.0 15.254324 22.194176 23.262447 
220 2 0.0 15.967932 19.744881 24.383739 
221 1 0.0 13.009581 19.972165 21.621314 
222 2 0.0 16.076383 21.880456 22.642885 
223 2 0.0 14.484652 18.876205 24.037755 
224 2 0.0 14.779013 23.015685 22.740781 
225 1 0.0 14.255112 21.028727 23.553341 
226 2 0.0 13.662848 19.093335 21.779468 
227 1 0.0 13.531509 21.154057 24.871194 
228 2 0.0 11.577616 20.403052 24.114642 
229 2 0.0 15.388903 21.640468 25.991695 
230 1 0.0 12.132387 20.766138 24.992887 
231 1 0.0 14.275599 21.530802 26.098470 
232 1 0.0 11.480440 20.917125 26.242722 
233 1 0.0 13.594283 21.694442 27.310678 
234 2 0.0 10.420951 20.696045 26.404469 
235 2 0.0 14.150462 21.973796 28.247246 
236 1 0.0 12.150635 21.537189 27.368961 
237 3 0.0 11.480850 22.094239 28.418231 
238 2 0.0 11.470907 19.365518 28.826593 
239 1 0.0 11.077921 21.432296 29.521525 
240 1 0.0 11.137870 19.988675 29.626308 
241 2 0.0 10.316202 23.281618 30.528819 
242 1 0.0 10.538456 22.194480 30.629992 
243 1 0.0 10.899037 19.335684 30.856730 
244 2 0.0 10.992178 18.250530 30.983736 
245 1 0.0 10.322715 21.623867 31.913142 
246 1 0.0 10.509103 20.115552 32.008424 
247 1 0.0 10.091022 22.134243 33.327430 
248 3 0.0 9.752906 23.307038 33.469760 
249 1 0.0 10.573670 19.695228 33.477578 
250 4 0.0 10.433933 21.013878 34.296629 
251 3 0.0 10.933107 18.629123 33.935051 
252 1 0.0 10.756664 21.185381 35.809901 
253 2 0.0 12.666046 20.385883 35.567274 
254 2 0.0 8.800532 22.091263 36.280531 
255 1 0.0 11.936614 20.662966 36.385365 
256 1 0.0 9.743727 21.652192 36.712108 
257 1 0.0 12.211568 20.452064 37.752462 
258 1 0.0 9.903744 21.390299 38.099421 
259 2 0.0 9.141318 21.733257 38.847954 
260 3 0.0 13.329176 19.734123 40.702505 
261 1 0.0 11.099272 20.823608 38.603063 
262 4 0.0 13.536556 19.904641 38.237001 
263 1 0.0 13.908160 19.445693 39.674747 
264 3 0.0 14.521735 19.060527 36.140372 
265 1 0.0 14.578328 19.158357 37.332095 
266 2 0.0 11.198764 20.714245 39.692266 
267 1 0.0 15.216066 18.684395 39.609984 
268 1 0.0 15.615037 18.453794 38.193731 
269 2 0.0 15.778200 18.420471 41.711179 
270 1 0.0 16.060258 18.173657 40.691927 
271 1 0.0 16.809502 17.637083 37.966578 
272 2 0.0 17.169522 17.448631 36.972255 
273 1 0.0 17.153552 17.311670 40.478125 
274 1 0.0 17.524989 17.107921 39.082758 
275 3 0.0 18.055101 16.923320 41.455558 
276 2 0.0 18.401626 16.518534 38.817303 
277 2 0.0 17.247786 25.630443 2.391863 
278 1 0.0 17.043884 24.817917 3.049897 
279 1 0.0 17.448800 23.510885 2.634210 
280 2 0.0 17.150284 24.343510 7.431899 
281 2 0.0 16.211377 26.044153 4.621604 
282 2 0.0 15.291540 25.982462 7.133970 
283 1 0.0 16.437386 25.044816 4.328038 
284 1 0.0 17.233960 22.384947 3.530592 
285 2 0.0 17.509292 21.336233 3.298694 
286 1 0.0 16.038770 23.918866 5.142510 
287 1 0.0 16.260574 23.691543 7.541132 
288 1 0.0 16.490262 22.592739 4.712486 
289 2 0.0 15.778765 23.858101 8.517796 
290 1 0.0 14.514159 25.356093 6.626385 
291 2 0.0 16.539865 22.635125 7.622662 
292 2 0.0 16.293164 21.705057 5.332596 
293 1 0.0 15.216945 23.951410 6.398259 
294 2 0.0 14.071395 25.817590 5.732966 
295 2 0.0 13.676707 25.248124 7.361773 
296 1 0.0 14.084407 22.899644 6.481307 
297 2 0.0 13.986659 22.229461 4.436363 
298 2 0.0 13.849252 23.254299 8.675294 
299 1 0.0 13.599111 22.056876 5.415215 
300 1 0.0 13.507714 22.624037 7.814772 
301 1 0.0 12.611021 21.068984 5.621405 
302 1 0.0 12.601430 21.597186 8.054387 
303 2 0.0 12.304558 20.456065 4.761496 
304 2 0.0 12.277454 21.473290 9.051411 
305 1 0.0 12.035279 20.799147 6.925009 
306 3 0.0 10.874708 20.175150 7.139363 
307 2 0.0 12.681253 19.181840 9.002768 
308 1 0.0 10.640692 20.033885 8.481963 
309 1 0.0 11.662076 19.582371 9.409616 
310 2 0.0 8.581940 20.644965 8.347649 
311 1 0.0 9.378427 20.371506 9.022296 
312 1 0.0 11.557513 19.690759 10.811278 
313 2 0.0 12.345029 19.314727 11.457101 
314 1 0.0 9.260372 20.650288 10.454315 
315 1 0.0 10.337930 20.225242 11.414820 
316 1 0.0 8.093154 21.118116 11.301179 
317 3 0.0 7.076800 21.508990 10.800504 
318 1 0.0 9.840690 20.280651 12.845836 
319 4 0.0 8.342270 20.821917 12.815059 
320 3 0.0 10.575124 20.045723 13.762241 
321 2 0.0 6.025608 22.240277 12.614214 
322 1 0.0 7.728738 21.646995 13.873300 
323 1 0.0 6.601742 22.458945 13.527238 
324 2 0.0 9.295487 21.504092 15.386240 
325 1 0.0 8.362004 21.987358 15.142900 
326 1 0.0 5.915765 23.281419 14.468599 
327 2 0.0 4.990385 23.734879 14.274703 
328 1 0.0 7.820282 22.895899 16.081892 
329 1 0.0 6.575620 23.469109 15.715906 
330 3 0.0 10.345130 24.724137 16.507688 
331 4 0.0 8.432803 23.391104 17.409372 
332 2 0.0 6.091037 24.145377 16.470039 
333 1 0.0 9.725579 24.293260 17.439532 
334 3 0.0 6.497570 23.637191 18.825225 
335 1 0.0 7.629943 23.910276 18.581512 
336 1 0.0 9.832564 24.946327 18.809170 
337 1 0.0 8.503157 24.764661 19.508117 
338 2 0.0 11.676296 26.064533 18.943627 
339 1 0.0 10.767607 25.812510 19.470909 
340 1 0.0 8.236518 25.454177 20.744672 
341 2 0.0 7.238860 25.373932 21.193467 
342 1 0.0 10.491307 26.427913 20.710282 
343 1 0.0 9.251696 26.170426 21.423290 
344 2 0.0 11.205372 27.124244 21.110311 
345 2 0.0 9.247278 28.775476 21.740678 
346 3 0.0 9.185911 26.387053 22.714044 
347 1 0.0 9.927509 28.631031 22.552901 
348 1 0.0 10.068178 27.342843 23.173857 
349 2 0.0 10.660998 30.664714 22.397222 
350 2 0.0 14.062600 29.749511 25.920822 
351 2 0.0 12.915244 31.519088 22.555389 
352 1 0.0 10.794243 29.693074 22.911234 
353 1 0.0 11.096095 27.093728 24.133032 
354 2 0.0 11.178984 26.111889 24.610001 
355 1 0.0 13.983257 30.281604 24.957172 
356 1 0.0 11.760098 29.537945 24.007045 
357 1 0.0 12.504753 31.828797 23.507227 
358 2 0.0 14.480427 29.628921 24.208971 
359 1 0.0 11.887093 28.202516 24.535028 
360 2 0.0 11.522810 32.234538 23.206596 
361 2 0.0 14.680634 31.161531 25.011755 
362 2 0.0 13.068826 32.710202 23.866574 
363 1 0.0 12.469634 30.713720 24.636975 
364 2 0.0 12.596376 28.006029 25.379947 
365 1 0.0 11.794346 31.301030 25.819615 
366 2 0.0 9.960934 30.063830 25.592813 
367 2 0.0 13.423748 32.740508 26.284073 
368 1 0.0 10.481681 30.824831 26.154877 
369 1 0.0 12.464695 32.295420 26.663333 
370 1 0.0 9.847654 31.285267 27.347533 
371 1 0.0 11.883716 32.700446 27.844371 
372 2 0.0 8.848676 30.950400 27.650675 
373 2 0.0 12.313482 33.453795 28.479856 
374 1 0.0 10.592259 32.120200 28.250192 
375 3 0.0 10.014388 32.253109 29.461497 
376 2 0.0 12.078460 30.546331 29.155591 
377 1 0.0 10.726148 31.754818 30.475187 
378 1 0.0 11.866803 30.861895 30.212861 
379 2 0.0 9.513493 32.811319 31.973533 
380 1 0.0 10.358415 32.153165 31.816988 
381 1 0.0 12.623637 30.341541 31.261165 
382 2 0.0 13.459430 29.654320 31.053258 
383 1 0.0 11.044901 31.539240 32.902909 
384 1 0.0 12.297981 30.682305 32.647933 
385 1 0.0 10.837823 31.696956 34.387122 
386 3 0.0 9.986308 32.385031 34.892818 
387 1 0.0 12.826765 30.175460 33.932363 
388 4 0.0 12.008776 30.752611 35.083894 
389 3 0.0 13.567909 29.227262 34.069346 
390 1 0.0 11.932767 29.977480 36.326148 
391 2 0.0 13.659634 28.622044 36.021671 
392 2 0.0 10.144286 31.043890 37.106653 
393 1 0.0 12.828888 28.869814 36.703825 
394 1 0.0 10.896765 30.277244 37.277806 
395 1 0.0 12.900664 28.269758 37.985086 
396 1 0.0 10.842563 29.558803 38.493762 
397 2 0.0 9.996508 29.762691 39.265194 
398 3 0.0 13.386078 26.620244 40.679790 
399 1 0.0 11.779404 28.537414 38.843611 
400 4 0.0 14.107434 27.610277 38.506398 
401 1 0.0 14.069097 26.637169 39.709582 
402 3 0.0 16.025191 27.819560 36.752236 
403 1 0.0 15.476485 27.277476 37.666779 
404 2 0.0 11.671489 27.955611 39.767373 
405 1 0.0 15.275272 25.708601 39.563150 
406 1 0.0 16.104159 26.103079 38.349475 
407 2 0.0 15.140806 24.439210 41.439302 
408 1 0.0 15.699389 24.707538 40.508768 
409 1 0.0 17.268715 25.339692 38.018967 
410 2 0.0 17.797157 25.580362 37.113439 
411 1 0.0 16.908348 23.985231 40.176646 
412 1 0.0 17.554167 24.252774 38.896707 
413 3 0.0 17.580417 23.179626 41.038080 
414 2 0.0 18.433735 23.656449 38.572389 
415 2 0.0 13.952866 33.640162 1.495211 
416 1 0.0 14.096858 32.944106 2.305899 
417 1 0.0 14.616344 31.592735 2.079959 
418 2 0.0 15.195630 33.993236 6.607590 
419 2 0.0 13.409229 34.435165 3.780913 
420 2 0.0 11.703791 34.196308 6.876477 
421 1 0.0 13.798066 33.408449 3.601208 
422 1 0.0 15.055381 30.770771 3.203482 
423 2 0.0 15.564047 29.797871 3.072914 
424 1 0.0 13.967322 32.469529 4.717458 
425 1 0.0 14.516691 33.187979 7.058636 
426 1 0.0 14.669631 31.203624 4.482703 
427 2 0.0 14.143081 33.565090 8.061126 
428 1 0.0 12.303628 34.002000 5.919728 
429 2 0.0 15.141783 32.320015 7.229820 
430 2 0.0 14.757346 30.593490 5.362879 
431 1 0.0 13.321823 32.785883 6.070467 
432 2 0.0 12.802301 34.943720 5.649772 
433 2 0.0 11.558267 33.749464 5.171534 
434 1 0.0 12.587904 31.622502 6.568492 
435 2 0.0 11.988026 31.021472 4.521377 
436 2 0.0 12.956876 31.844786 8.799741 
437 1 0.0 11.865802 30.830017 5.568404 
438 1 0.0 12.454182 31.256776 7.983919 
439 1 0.0 11.061015 29.765996 5.983808 
440 1 0.0 11.701400 30.168253 8.396942 
441 2 0.0 10.600591 29.136563 5.264371 
442 2 0.0 11.579979 29.962480 9.483940 
443 1 0.0 10.934704 29.391234 7.393046 
444 3 0.0 9.931699 28.547831 7.591656 
445 2 0.0 11.788353 27.193137 9.056417 
446 1 0.0 9.737167 27.932419 8.796687 
447 1 0.0 10.813660 27.243948 9.498306 
448 2 0.0 7.616637 28.423280 8.665103 
449 1 0.0 8.417302 28.006297 9.290374 
450 1 0.0 10.564199 26.680865 10.762367 
451 2 0.0 11.374400 26.191760 11.337225 
452 1 0.0 8.120577 27.502990 10.596311 
453 1 0.0 9.240196 26.777441 11.328953 
454 1 0.0 6.973358 27.551876 11.585422 
455 3 0.0 6.114090 28.402261 11.547337 
456 1 0.0 8.744441 26.310579 12.693947 
457 4 0.0 7.219033 26.670745 12.798022 
458 3 0.0 9.400466 25.647911 13.438829 
459 2 0.0 4.651080 27.269943 13.349020 
460 1 0.0 6.610866 27.007914 14.170896 
461 1 0.0 5.239243 27.328240 14.253318 
462 2 0.0 8.398672 26.988038 15.300242 
463 1 0.0 7.323005 27.234104 15.387040 
464 1 0.0 4.639045 27.806819 15.472486 
465 2 0.0 3.603102 28.022534 15.486935 
466 1 0.0 6.843904 27.767842 16.622189 
467 1 0.0 5.452095 28.015014 16.625611 
468 3 0.0 8.896383 30.130284 16.183042 
469 4 0.0 7.662331 28.495289 17.704327 
470 2 0.0 4.927092 28.362112 17.536430 
471 1 0.0 8.462048 29.776903 17.230405 
472 3 0.0 5.955391 28.387581 19.481703 
473 1 0.0 6.946027 28.877359 18.990888 
474 1 0.0 8.334469 30.810613 18.371796 
475 1 0.0 7.544404 30.222488 19.488138 
476 2 0.0 9.531042 32.487070 17.566860 
477 1 0.0 8.976319 32.076327 18.405410 
478 1 0.0 7.639095 30.929794 20.730601 
479 2 0.0 7.092095 30.509377 21.581952 
480 1 0.0 8.918348 32.757325 19.675369 
481 1 0.0 8.310744 32.192719 20.846957 
482 2 0.0 9.439993 33.712396 19.730122 
483 2 0.0 7.132084 34.423865 20.478464 
484 3 0.0 8.479559 32.704101 22.117080 
485 1 0.0 7.206825 34.750457 21.519351 
486 1 0.0 7.981798 33.889321 22.415006 
487 2 0.0 6.041778 36.579022 21.243058 
488 2 0.0 7.550108 38.913404 22.427965 
489 2 0.0 4.180857 37.344767 22.528402 
490 1 0.0 6.575248 35.926977 21.975222 
491 1 0.0 8.057851 34.360345 23.799431 
492 2 0.0 8.641352 33.796683 24.501529 
493 1 0.0 7.119934 38.888242 23.486421 
494 1 0.0 6.673393 36.373196 23.338726 
495 1 0.0 4.899364 38.149957 22.780818 
496 2 0.0 6.690596 39.916690 23.697881 
497 1 0.0 7.409834 35.531568 24.238322 
498 2 0.0 4.262661 38.884347 23.265998 
499 2 0.0 8.018648 38.780758 24.110578 
500 2 0.0 5.275505 38.556150 21.801966 
501 1 0.0 6.090836 37.711748 23.692316 
502 2 0.0 7.515225 35.940825 25.219555 
503 1 0.0 5.663971 37.675783 25.166795 
504 2 0.0 4.053652 36.140070 24.887627 
505 2 0.0 7.100622 39.152536 25.916811 
506 1 0.0 4.597320 36.766477 25.598942 
507 1 0.0 6.321489 38.481872 26.195163 
508 1 0.0 4.208649 36.677023 26.951287 
509 1 0.0 5.944154 38.337127 27.581079 
510 2 0.0 3.360804 36.008561 27.245736 
511 2 0.0 6.538705 38.892575 28.335778 
512 1 0.0 4.927882 37.441385 27.958833 
513 3 0.0 4.435214 37.264620 29.197197 
514 2 0.0 6.915083 36.484046 28.864700 
515 1 0.0 5.302359 37.053284 30.219727 
516 1 0.0 6.694871 36.698812 29.920250 
517 2 0.0 3.815151 37.445156 31.740671 
518 1 0.0 4.837966 37.212218 31.547142 
519 1 0.0 7.656334 36.504635 30.913177 
520 2 0.0 8.637682 36.193276 30.642694 
521 1 0.0 5.791151 37.038530 32.629923 
522 1 0.0 7.239008 36.713672 32.294148 
523 1 0.0 5.717700 37.284373 34.111751 
524 3 0.0 4.917374 37.997184 34.609835 
525 1 0.0 8.068992 36.763319 33.563287 
526 4 0.0 7.151205 36.999228 34.764154 
527 3 0.0 9.246779 36.524298 33.651797 
528 1 0.0 7.464201 36.668541 36.196337 
529 2 0.0 9.298064 35.614226 35.802347 
530 2 0.0 5.672915 37.621494 37.056517 
531 1 0.0 8.630543 35.951370 36.613652 
532 1 0.0 6.594049 37.054288 37.274814 
533 1 0.0 8.989196 35.536423 37.916876 
534 1 0.0 6.898951 36.815257 38.641397 
535 2 0.0 6.258169 37.142366 39.453505 
536 3 0.0 9.885553 33.926642 40.594598 
537 1 0.0 8.063695 36.023479 38.913965 
538 4 0.0 10.119508 34.579625 38.183763 
539 1 0.0 10.472304 33.826744 39.547948 
540 3 0.0 11.706259 34.869173 36.361455 
541 1 0.0 11.315833 34.255571 37.312829 
542 2 0.0 8.244440 35.756299 39.948806 
543 1 0.0 11.712295 32.982276 39.330259 
544 1 0.0 12.217699 33.180788 37.900592 
545 2 0.0 12.117960 31.970583 41.279932 
546 1 0.0 12.423871 32.153285 40.257764 
547 1 0.0 13.407705 32.504702 37.477465 
548 2 0.0 13.811279 32.586313 36.491395 
549 1 0.0 13.641612 31.489472 39.785076 
550 1 0.0 14.013523 31.589130 38.426368 
551 3 0.0 14.470362 30.850721 40.732480 
552 2 0.0 14.869755 31.024097 38.025026 
553 2 0.0 14.499235 40.155474 6.416294 
554 1 0.0 14.408075 39.562528 7.355546 
555 1 0.0 14.642578 38.165488 7.252834 
556 2 0.0 15.296781 40.237870 11.908410 
557 2 0.0 13.675658 41.187738 8.656236 
558 2 0.0 13.324320 41.842611 11.230252 
559 1 0.0 13.957755 40.134172 8.583236 
560 1 0.0 14.569971 37.306130 8.407551 
561 2 0.0 14.707007 36.240578 8.318714 
562 1 0.0 13.904864 39.296582 9.754370 
563 1 0.0 14.396948 39.692901 12.229772 
564 1 0.0 14.246609 37.880584 9.670040 
565 2 0.0 13.990290 40.233423 13.100597 
566 1 0.0 12.592522 41.028701 11.020669 
567 2 0.0 14.712425 38.743367 12.582664 
568 2 0.0 14.171498 37.236806 10.543029 
569 1 0.0 13.279814 39.603436 11.064996 
570 2 0.0 12.016698 41.194405 10.098955 
571 2 0.0 11.822403 41.060548 11.804072 
572 1 0.0 12.168786 38.626970 11.423442 
573 2 0.0 11.913493 38.154432 9.301565 
574 2 0.0 12.066046 38.708119 13.678520 
575 1 0.0 11.522263 37.954934 10.277581 
576 1 0.0 11.680482 38.277441 12.768813 
577 1 0.0 10.516965 37.031806 10.492234 
578 1 0.0 10.692259 37.302130 12.957145 
579 2 0.0 10.053571 36.517494 9.598589 
580 2 0.0 10.434807 37.063861 13.987814 
581 1 0.0 10.003946 36.655483 11.832913 
582 3 0.0 9.088098 35.711782 11.942742 
583 2 0.0 7.962042 33.371372 12.862266 
584 1 0.0 8.386440 35.522969 13.099203 
585 1 0.0 7.725953 34.296504 13.487373 
586 2 0.0 8.504789 37.626788 13.762184 
587 1 0.0 8.025368 36.651750 13.872922 
588 1 0.0 6.778642 34.061749 14.534458 
589 2 0.0 6.351344 33.070114 14.735401 
590 1 0.0 7.016540 36.490677 14.920434 
591 1 0.0 6.421102 35.188256 15.356367 
592 1 0.0 6.445980 37.551394 15.848321 
593 3 0.0 6.581919 38.699491 15.558317 
594 1 0.0 5.411920 35.401333 16.510245 
595 4 0.0 5.470201 36.930955 16.874921 
596 3 0.0 4.760357 34.559961 17.065126 
597 2 0.0 2.922446 36.246404 18.006851 
598 1 0.0 4.557817 37.734173 17.764105 
599 1 0.0 3.328042 37.238658 18.303223 
600 2 0.0 5.797375 39.452873 17.841912 
601 1 0.0 4.872301 39.054164 18.209743 
602 1 0.0 2.523403 38.023699 19.177542 
603 2 0.0 1.600207 37.637011 19.563704 
604 1 0.0 4.112214 39.931040 19.065248 
605 1 0.0 2.880006 39.369072 19.498337 
606 3 0.0 6.840996 41.125707 19.064570 
607 4 0.0 4.496127 41.281803 19.603936 
608 2 0.0 2.178975 39.951089 20.127849 
609 1 0.0 5.948186 41.715486 19.577878 
610 3 0.0 2.950012 41.666738 21.595076 
611 1 0.0 3.846278 41.942074 20.894758 
612 1 0.0 6.131016 42.872379 20.613054 
613 1 0.0 4.872116 43.030819 21.363273 
614 2 0.0 8.229897 43.459398 20.234354 
615 1 0.0 7.338797 43.673041 20.803942 
616 1 0.0 4.835872 44.109375 22.309446 
617 2 0.0 3.892768 44.311691 22.887488 
618 1 0.0 7.271223 44.555949 21.922991 
619 1 0.0 6.052387 44.784763 22.664642 
620 2 0.0 8.166001 45.136005 22.215195 
621 2 0.0 6.526109 46.235426 26.514389 
622 3 0.0 6.117357 45.470743 23.899666 
623 1 0.0 6.965728 45.266127 26.182428 
624 1 0.0 6.798228 44.814564 24.827284 
625 2 0.0 7.737375 44.837681 28.155192 
626 2 0.0 10.302712 40.516074 27.946319 
627 2 0.0 11.070943 42.997534 27.376819 
628 1 0.0 7.632136 44.439026 27.136018 
629 1 0.0 7.325277 43.502750 24.513820 
630 2 0.0 7.123810 43.022839 23.570045 
631 1 0.0 9.648131 41.015255 27.254042 
632 1 0.0 8.194659 43.152218 26.827422 
633 1 0.0 10.352520 43.126891 28.192002 
634 2 0.0 8.837406 40.258180 27.001662 
635 1 0.0 8.010234 42.695817 25.452396 
636 2 0.0 10.246316 44.204266 28.280602 
637 2 0.0 10.176804 41.236770 26.286308 
638 2 0.0 10.734952 42.792850 29.169858 
639 1 0.0 9.011248 42.347784 27.818134 
640 2 0.0 8.452774 41.764535 25.112757 
641 1 0.0 8.183182 41.990083 28.994610 
642 2 0.0 6.568882 40.982963 27.762872 
643 2 0.0 9.410169 43.215496 30.427367 
644 1 0.0 6.902432 41.330228 28.764817 
645 1 0.0 8.529886 42.602321 30.280175 
646 1 0.0 6.092600 41.064486 29.873974 
647 1 0.0 7.731171 42.280070 31.377925 
648 2 0.0 5.122263 40.528052 29.757903 
649 2 0.0 8.000792 42.695060 32.376121 
650 1 0.0 6.515046 41.503836 31.204793 
651 3 0.0 5.780682 41.194509 32.280091 
652 2 0.0 8.256615 39.883153 32.451357 
653 1 0.0 6.408893 40.841482 33.428470 
654 1 0.0 7.735485 40.146560 33.408915 
655 2 0.0 4.900329 41.686111 34.728813 
656 1 0.0 5.870092 41.211863 34.688690 
657 1 0.0 8.322879 39.697341 34.621242 
658 2 0.0 9.290991 39.130624 34.592006 
659 1 0.0 6.455447 40.784431 35.937023 
660 1 0.0 7.725522 39.982786 35.930626 
661 1 0.0 6.101792 40.973167 37.413227 
662 3 0.0 5.136902 41.496973 37.860324 
663 1 0.0 8.315519 39.596067 37.241455 
664 4 0.0 7.271155 40.221875 38.275853 
665 3 0.0 9.370745 39.061712 37.333635 
666 1 0.0 7.496315 40.341510 39.697524 
667 2 0.0 9.284977 39.046635 39.747258 
668 2 0.0 5.859862 41.760913 40.091949 
669 1 0.0 8.546210 39.619078 40.369820 
670 1 0.0 6.684466 41.208518 40.543461 
671 1 0.0 8.735569 39.667555 41.784991 
672 1 0.0 6.857182 41.286988 41.927879 
673 2 0.0 6.189108 41.924893 42.534748 
674 3 0.0 9.908375 39.853644 44.752226 
675 1 0.0 7.903941 40.509710 42.556665 
676 4 0.0 9.851864 38.893360 42.406863 
677 1 0.0 10.412676 39.213559 43.881397 
678 3 0.0 11.075829 37.920589 40.500964 
679 1 0.0 11.053179 38.341823 41.619208 
680 2 0.0 8.075597 40.475886 43.652482 
681 1 0.0 11.845544 38.659214 43.956507 
682 1 0.0 12.202566 38.151207 42.573646 
683 2 0.0 12.463532 38.782847 46.057980 
684 1 0.0 12.729069 38.489482 45.050960 
685 1 0.0 13.504741 37.507313 42.341424 
686 2 0.0 13.802746 37.112234 41.359119 
687 1 0.0 14.026989 37.898189 44.816058 
688 1 0.0 14.338667 37.408410 43.471893 
689 3 0.0 14.968401 37.643802 45.735851 
690 2 0.0 15.300442 36.893521 43.343431 
691 2 0.0 15.283321 53.767508 7.512800 
692 1 0.0 14.371669 53.231208 7.808457 
693 1 0.0 13.704720 52.446874 6.764110 
694 2 0.0 12.793171 52.398723 13.130366 
695 2 0.0 14.570268 53.728325 9.886077 
696 2 0.0 10.773663 53.872705 11.119722 
697 1 0.0 13.976348 53.222847 9.145423 
698 1 0.0 12.526627 51.713860 7.145912 
699 2 0.0 11.963447 51.208665 6.400557 
700 1 0.0 12.835071 52.391745 9.560064 
701 1 0.0 13.011150 52.847745 12.141716 
702 1 0.0 12.121718 51.652659 8.494946 
703 2 0.0 14.095692 52.775462 12.076513 
704 1 0.0 10.784711 52.759524 10.974236 
705 2 0.0 12.689987 53.916109 12.282026 
706 2 0.0 11.306882 51.023649 8.833920 
707 1 0.0 12.275189 52.164191 10.929266 
708 2 0.0 10.216120 52.528580 10.038212 
709 2 0.0 10.236908 52.401027 11.876791 
710 1 0.0 12.250412 50.726809 11.345892 
711 2 0.0 10.129246 50.362856 10.808160 
712 2 0.0 14.320639 50.708822 12.214727 
713 1 0.0 11.054377 49.963616 11.170516 
714 1 0.0 13.411393 50.125611 12.013850 
715 1 0.0 10.922250 48.643976 11.706009 
716 1 0.0 13.262353 48.811462 12.513942 
717 2 0.0 9.959205 48.083974 11.613578 
718 2 0.0 14.036966 48.325728 13.064633 
719 1 0.0 12.095305 48.000826 12.209431 
720 3 0.0 12.206255 46.579377 12.263498 
721 2 0.0 12.030679 44.022469 12.144990 
722 1 0.0 11.327624 45.967551 13.009160 
723 1 0.0 11.321460 44.533540 12.795439 
724 2 0.0 10.455511 47.594068 14.191896 
725 1 0.0 10.366853 46.591503 13.885893 
726 1 0.0 10.307321 43.702017 13.296936 
727 2 0.0 10.287225 42.662299 12.986460 
728 1 0.0 9.334892 45.779968 14.428294 
729 1 0.0 9.294405 44.283920 14.161631 
730 1 0.0 8.282915 46.041094 15.516316 
731 3 0.0 8.097039 47.168825 15.873954 
732 1 0.0 8.206995 43.645873 14.971600 
733 4 0.0 7.506418 44.755662 15.862204 
734 3 0.0 7.795973 42.544164 14.830664 
735 2 0.0 5.594680 42.624568 16.131046 
736 1 0.0 6.237489 44.622379 16.668078 
737 1 0.0 5.363896 43.474657 16.765740 
738 2 0.0 6.488160 46.654583 17.453232 