LAMMPS data file via write_data, version 2 Aug 2023, timestep = 40000, units = real

1136 atoms
3 atom types

0.009163402210163873 4.441479597789812 xlo xhi
0.016790529771990137 8.138330470228071 ylo yhi
0.5381023776278369 260.8169626223681 zlo zhi
0 0 0 xy xz yz

Masses

1 12.0107
2 18.998404
3 1.00794

Atoms # charge

597 1 0.1192348142184813 2.188996033081931 3.8031443507690734 7.360821293069134 0 0 0
595 2 -0.1395769393314058 4.0927066729293955 3.0620349501244637 5.927972219402661 0 0 0
596 3 0.2088933626151876 3.360969660868611 4.876733359149402 5.959505647327761 0 0 0
17 1 0.08059792076286282 4.375341449133046 8.008950750207607 1.8783029089026457 -1 -1 0
18 2 -0.1487615571928617 3.6311707445289287 1.0590999685366154 1.9591753657090842 -1 0 0
19 2 -0.154383083305086 3.544155957505624 6.878945208299909 1.9141053280244018 -1 -1 0
20 1 -0.1467427463100135 0.7596026589997664 7.948928915795824 3.258740660303991 0 -1 0
21 3 0.1942217493559819 1.4128767266871518 7.110509046204138 3.2832433866987576 0 -1 0
22 3 0.1979235776812181 1.452402249744805 0.6210520293061056 3.229310165697174 0 0 0
23 1 0.1192552168199342 4.4253203220945005 7.810991593467293 4.589920441597227 -1 -1 0
24 2 -0.1422311408471456 3.4560785592393555 0.7196198397883737 4.687745816206196 -1 0 0
25 2 -0.1469837333247714 3.763281854524045 6.610626472690331 4.445618721678443 -1 -1 0
26 1 -0.001863514591295629 0.8879143665987865 7.775355484006674 5.932188289797082 0 -1 0
27 2 -0.1440914601766671 1.8199964935510875 6.687441039154718 5.919085275703211 0 -1 0
28 3 0.2081269715139252 1.5060784529546185 0.5642472698250494 5.865883665145036 0 0 0
29 1 0.115944674714406 0.1878400324689695 7.877149565546228 7.348363359752468 0 -1 0
30 2 -0.1456673850583245 3.6933803218438115 0.8262979305891295 7.3199455100788455 -1 0 0
31 2 -0.1464311695739511 3.8269043172363073 6.747717470022961 7.456352079345718 -1 -1 0
594 1 0.003921718655696207 2.938513612868267 3.924992779454192 5.935297279353175 0 0 0
598 2 -0.1460398689120757 1.1426536490305157 4.72445961769614 7.411564625756658 0 0 0
599 2 -0.1455733754254921 1.6326276893992393 2.5113149367652543 7.475678194023032 0 0 0
585 1 0.07326743146852818 2.104649629252568 4.010789170975128 1.8829069947438213 0 0 0
586 2 -0.1541143199653851 1.3360316849983103 5.158591791916591 1.866656597322671 0 0 0
587 2 -0.1494378206052928 1.2197582184764284 2.9500669641038697 1.80759120044036 0 0 0
588 1 -0.145140644227548 2.949970688331228 3.9967357103673757 3.2132322801851543 0 0 0
589 3 0.2041251359072813 3.7414281322344376 3.2455796928085143 3.112735272388502 0 0 0
590 3 0.1932831529486568 3.4153552015293287 4.92374834888047 3.1770867682003665 0 0 0
591 1 0.131638604213976 2.197769298957757 3.8329034319004425 4.52274129108581 0 0 0
592 2 -0.1451912286719296 1.1773357387323338 4.767221976142913 4.496868572176066 0 0 0
593 2 -0.1404350251877711 1.5935450639027835 2.577676723956522 4.456799669046086 0 0 0
600 1 -0.139862149679406 3.0767875168111476 3.890196447723527 8.577979479172098 0 0 0
601 3 0.2031306357134037 3.7086124145743726 3.0187852212623305 8.565667869711104 0 0 0
14 1 -0.1651700784504715 0.7002854980615434 8.000758361274933 0.5405400244681504 0 -1 0
602 3 0.1985461693447408 3.7005948595382367 4.834931648855842 8.497503449441348 0 0 0
34 3 0.1958790173705725 1.4772668373045656 0.8414135662012459 8.504238945841411 0 0 0
614 2 -0.1421236777360098 4.08039571193729 4.933678642445834 14.056674372081861 0 0 0
612 1 -0.001525455890245371 2.9902597283392645 3.952692915190339 14.095807893498614 0 0 0
617 2 -0.1438545504312288 1.0450017478430274 3.237734907760252 15.467448596031106 0 0 0
35 1 0.07657774110517804 0.09286502968693816 8.038906627182081 10.009374026367377 0 -1 0
36 2 -0.1524312316236134 3.5982012749513985 0.9978129957580383 10.019645829825913 -1 0 0
37 2 -0.1515983748301002 3.76998012847977 6.903215982270356 9.985345396739136 -1 -1 0
38 1 -0.1475263158798463 0.8402243369976294 8.06078579142663 11.410749197944316 0 -1 0
39 3 0.1944169559734693 1.5068822085421887 7.206136526529932 11.511498839435184 0 -1 0
40 3 0.1987819836987246 1.478883723232827 0.7802048815649243 11.362433604749663 0 0 0
41 1 0.1152773936816227 0.04815783857098161 8.103532771037882 12.708806877964031 0 -1 0
42 2 -0.1446634769098183 3.8179955012930917 1.1921231286718292 12.712052380936731 -1 0 0
43 2 -0.1454242691463022 3.42831757377935 7.163968750933858 12.590736254417335 -1 -1 0
44 1 0.007475650806996028 0.7563689110371513 7.951663175901053 14.145357677587098 0 -1 0
45 3 0.2096712317853517 1.1693738958942435 6.945232947371894 14.024673582228582 0 -1 0
46 2 -0.1410152634542383 1.9497533570780416 0.674144158077344 14.121759027440062 0 0 0
47 1 0.120959642707005 0.10017742135877862 8.04154759388968 15.603316024357541 0 -1 0
48 2 -0.1440229252226512 3.8813053078742366 1.1255759897805204 15.723061338751489 -1 0 0
49 2 -0.1458329929722973 3.5146726909564405 7.059623108348059 15.624990042371167 -1 -1 0
613 3 0.2096889586808924 3.5028156766983263 3.0467885338449525 14.092495478273674 0 0 0
615 1 0.1195724482580173 2.1408648963417196 4.11563672193738 15.481291497266394 0 0 0
616 2 -0.1454389342992804 1.5951863187400979 5.381214595646726 15.452417713188906 0 0 0
603 1 0.08017529412876293 2.3014824437406456 3.887215488959 9.977079675003116 0 0 0
604 2 -0.150865986122586 1.4039520650533102 4.974081270654695 10.00541507481149 0 0 0
605 2 -0.15205962160496 1.4658487122885129 2.8033076738436895 9.874487214037321 0 0 0
606 1 -0.1471436729549338 3.0634166933245575 3.8665776916591774 11.340777815031982 0 0 0
607 3 0.1967578441375433 3.718013379634219 3.0143506042657933 11.390113340248526 0 0 0
608 3 0.2013628705764724 3.600755915141578 4.759894219899584 11.326868458462622 0 0 0
609 1 0.1120885211648432 2.2849822387632828 3.9278544151849237 12.678192617353327 0 0 0
610 2 -0.145208526377872 1.59209446191003 5.102218596773943 12.548334773782974 0 0 0
611 2 -0.1450067011568399 1.4107061037144242 2.907735028780297 12.69562252797138 0 0 0
619 3 0.1956767009317307 3.4297169669835617 3.0529028700615455 16.799378304091974 0 0 0
32 1 -0.1421744302904863 0.9141171203994197 8.027360268909534 8.677870451035432 0 -1 0
33 3 0.1957356467838966 1.6501015434688495 7.266690491761193 8.895771118456354 0 -1 0
631 2 -0.139457760590203 3.9468675854191657 2.97466641697537 22.268330518070236 0 0 0
633 1 0.118177072976923 2.0641282944193233 3.7987790200030824 23.75239361277772 0 0 0
630 1 0.004649101409857142 2.776662903435962 3.8504851036430696 22.288096336575297 0 0 0
53 1 0.08327079218142029 0.05693376205223637 7.9562164089673395 18.30467064148028 0 -1 0
54 2 -0.1511340939007241 3.67194683624993 0.9305281587434362 18.275422564196155 -1 0 0
55 2 -0.1539869621299212 3.6806541100191064 6.859662987265484 18.318364374159486 -1 -1 0
56 1 -0.1451948603338754 0.960456272364354 7.980739494998347 19.625598898013166 0 -1 0
57 3 0.1933953527297636 1.6082587682681768 7.0771085129950215 19.6221358119797 0 -1 0
58 3 0.1999210027766801 1.5979440582443087 0.6950426347224332 19.723332935364276 0 0 0
59 1 0.1247145213624255 0.13819060017432572 7.909357822261825 20.916976102808867 0 -1 0
60 2 -0.1445944717234834 3.7024721881913454 0.8579579492773965 20.991330328788482 -1 0 0
61 2 -0.1481196025500491 3.7459720863351427 6.755169120136736 20.836315467145795 -1 -1 0
62 1 -0.004494494066408462 0.9480674505241434 7.8760737995266386 22.275541707644088 0 -1 0
63 2 -0.1457684175830193 1.7699166459450215 6.743590168530901 22.285918343055073 0 -1 0
64 3 0.2082532272003899 1.6428424684079912 0.5984175431519634 22.432239941734483 0 0 0
65 1 0.1178429938499993 0.048468067110019664 7.901720103726616 23.648922947353356 0 -1 0
66 2 -0.1445555326246974 3.594435495900683 0.7877899228030627 23.564017404351564 -1 0 0
67 2 -0.1481419716560775 3.784039313950023 6.737276930008457 23.77932789354757 -1 -1 0
632 3 0.2057129871271208 3.213437048116746 4.827642212254849 22.257585674599063 0 0 0
635 2 -0.1431524565056543 1.437979051975169 2.5798301373368364 23.88194931848818 0 0 0
634 2 -0.1463986927698476 1.0562177489219131 4.763022638948403 23.789413190230675 0 0 0
621 1 0.07298886436554936 2.077468573708709 3.9134059102562433 18.212006506580973 0 0 0
622 2 -0.1525115236215553 1.2734448925534574 5.016616957294935 18.235534521379304 0 0 0
623 2 -0.149651146049021 1.2582962942696994 2.782273491593441 18.191085224692323 0 0 0
624 1 -0.1471394789045011 2.851007653487282 3.888710441442729 19.59972687941294 0 0 0
625 3 0.2024495072505073 3.634123298446475 3.1450686940908574 19.482949711746986 0 0 0
626 3 0.1921828549060408 3.3475373313384806 4.839733039180933 19.720847323399706 0 0 0
627 1 0.1200061441578364 2.0654671063554955 3.7169872312994072 20.891042810149916 0 0 0
628 2 -0.1462596262235626 1.0573536361294207 4.6737619003200805 20.853544697521908 0 0 0
629 2 -0.1433299192214297 1.4318479514537068 2.4399056053985975 20.781051807196057 0 0 0
50 1 -0.1370031409267012 0.8519662532651021 7.9183221950229346 16.930713040758512 0 -1 0
620 3 0.1969699192115512 3.4979589858505045 4.746475491359675 16.871622404646967 0 0 0
618 1 -0.1521358895840035 2.8236815198584044 3.9503331466984584 16.838280107166696 0 0 0
51 3 0.1935646866607929 1.4238551409682199 6.990893177113765 16.93617306897693 0 -1 0
52 3 0.1988308955355284 1.6228695695207904 0.6486788833983209 16.905364536097196 0 0 0
70 3 0.1968997539175814 1.405356626351302 0.7589395743565417 24.899734172074385 0 0 0
68 1 -0.1500113713552179 0.7984550776481577 8.073222600365515 24.954224435633144 0 -1 0
636 1 -0.1466387469117619 2.872373590764345 3.943192926021423 25.049845859637095 0 0 0
652 2 -0.1446807642756499 1.5508703079516226 5.48267868722941 32.1680143207115 0 0 0
71 1 0.07982028024204782 4.425164150935679 8.117113914253126 26.316221913669235 -1 -1 0
72 2 -0.1496822822851377 3.700973599432143 1.1541723713034973 26.344879012336754 -1 0 0
73 2 -0.1536004042219968 3.556937464706725 7.052457267352968 26.307967981452638 -1 -1 0
74 1 -0.1503987528502654 0.7550558526293237 8.044547725419228 27.69100851667834 0 -1 0
75 3 0.192375121107679 1.1722556019600474 7.0746885069873775 27.78418305888786 0 -1 0
76 3 0.2006775038892951 1.5151164969743367 0.6457910694245501 27.6159055567491 0 0 0
77 1 0.1184854070579299 0.0675969943029402 0.21282904140178818 29.03470436626368 0 0 0
78 2 -0.1429350696064447 3.9804125781944895 1.4862906033193939 28.917630749417803 -1 0 0
79 2 -0.146036454122373 3.4116577425552044 7.467185150406896 29.05141890854162 -1 -1 0
80 1 -0.002168869805926571 0.8616547896833125 0.15369317522941855 30.422354721656838 0 0 0
81 3 0.2079691356327897 1.3920078917005074 7.3652279168437875 30.338403801675902 0 -1 0
82 2 -0.1409016241006144 1.9812804705762954 1.1434390364199665 30.321845742480072 0 0 0
83 1 0.1258757418624044 0.1260795802693469 0.2845804002482729 31.804546824411965 0 0 0
84 2 -0.1449945263500844 3.972926528645545 1.5667741407412137 31.873107804111488 -1 0 0
85 2 -0.1444812682650064 3.46131018166778 7.530419862160552 31.883606863448627 -1 -1 0
653 2 -0.1456594927097607 1.2137350732866203 3.2676087770618936 32.05523865878847 0 0 0
650 2 -0.1404561946818982 4.035046314595102 5.118452691165704 30.655012658494435 0 0 0
651 1 0.1187540926130722 2.20354823091854 4.285913816298763 32.029073729158824 0 0 0
649 3 0.2130402784059856 3.306177180135882 3.188875094673121 30.620814401622397 0 0 0
639 1 0.07322545390700516 2.138081862205685 4.051131501635122 26.46861634654771 0 0 0
640 2 -0.1528953177964537 1.3530871348692193 5.217059927521438 26.3726530123958 0 0 0
641 2 -0.148694881387144 1.2920761467433248 2.982457864241734 26.532411972276165 0 0 0
642 1 -0.1474389030130555 2.9131858222790834 4.142208113251258 27.80941416344342 0 0 0
643 3 0.2022922791120785 3.5075292958465485 3.249130360805644 27.802993391724677 0 0 0
644 3 0.1955878000672089 3.5335010760352024 4.973797247042216 27.731076962112 0 0 0
645 1 0.11980153043681 2.1974865110877406 4.378953314201328 29.161143085996134 0 0 0
646 2 -0.1459988169602251 1.6846868810393567 5.677647205821416 29.072048883776965 0 0 0
647 2 -0.1422127986223018 1.0734053400009063 3.5488979029566954 29.141144644675087 0 0 0
648 1 0.007397877988023436 2.920618940797109 4.208567342139262 30.635196506129127 0 0 0
69 3 0.1934411489238324 1.4937218060323283 7.194159912983614 24.946921207215695 0 -1 0
637 3 0.2026050315140773 3.609802059840927 3.180715762063056 25.07869561438864 0 0 0
638 3 0.1931031974010953 3.425787948132659 4.8594444138254405 24.95853806063006 0 0 0
86 1 -0.1402149802016105 0.899367666013373 0.15205573092695682 33.15439686880605 0 0 0
669 1 0.1202999469093493 2.156975083370291 4.067050440281643 40.109668064219385 0 0 0
89 1 0.08111966692355255 0.06895477564938232 0.14038775562686812 34.46578073953307 0 0 0
90 2 -0.152926740296035 3.651490758719463 1.2069105807348508 34.385478804393955 -1 0 0
91 2 -0.1512153701938296 3.678652233814946 7.142209073620526 34.4492414914622 -1 -1 0
92 1 -0.1428754861576545 0.7287215215928409 0.18698864025336215 35.89493385908175 0 0 0
93 3 0.199628169805298 1.459131163665704 7.455649369612483 35.946325376552764 0 -1 0
94 3 0.1963620625366684 1.2593390787985637 1.0909485152041551 36.01704369469256 0 0 0
95 1 0.113580860876628 4.332328477218707 8.133712718978616 37.18342031884692 -1 -1 0
96 2 -0.1460748068845994 3.258306334357095 0.8582876259708129 37.06596509601065 -1 0 0
97 2 -0.1452973756325588 3.8165171575355417 6.842742952327889 37.0705528172314 -1 -1 0
98 1 0.005313426347163188 0.6032478642246387 0.09297278527547453 38.71117298331715 0 0 0
99 2 -0.1414310750004932 1.7811505440507738 7.423636338070385 38.71161062083982 0 -1 0
100 3 0.208987981589308 1.098358653281967 1.058586682569956 38.770604538703125 0 0 0
101 1 0.1130737119801248 4.378062937448225 8.120205968831867 40.10983281177143 -1 -1 0
102 2 -0.1446496989751686 3.3001006572264617 0.9002546896471305 40.13897250245815 -1 0 0
103 2 -0.1449166453554382 3.7624645113222006 6.853285511901225 40.21171551558198 -1 -1 0
671 2 -0.1455098276081649 1.5805185093016147 2.7919737924125103 40.20922624331247 0 0 0
656 3 0.2000029501749325 3.6833683587363315 4.941568632642705 33.39620429569809 0 0 0
670 2 -0.1456489510390717 1.13258245802485 5.027001318369719 40.11102033172727 0 0 0
668 3 0.2082500292537139 3.5740079007697023 5.0411027537254816 38.66248583785477 0 0 0
657 1 0.07223185244623448 2.1671516945623295 4.08302223389461 34.675494852154515 0 0 0
658 2 -0.1516378167360579 1.2849648816297707 5.123939176586314 34.68767295582377 0 0 0
659 2 -0.1533572915628989 1.4832937232699523 2.9234131241692807 34.57833578156466 0 0 0
660 1 -0.1486669393567034 2.996109467430961 4.118045603713558 36.0227810025807 0 0 0
661 3 0.1952744944370285 3.643035449320298 3.2767473072149516 35.890004051622 0 0 0
662 3 0.1955702598776504 3.580263243123824 5.01808666059612 36.00846251149526 0 0 0
663 1 0.1222582795947638 2.2053929366593494 4.033704879540025 37.33943190642778 0 0 0
664 2 -0.1454367283309378 1.2688142446100656 5.009060939742666 37.28207949958106 0 0 0
665 2 -0.1457900298722087 1.4924468235113748 2.8262333704776896 37.26654561132116 0 0 0
666 1 -0.004188205049724178 2.9762711227144507 4.138242648152614 38.71205473747207 0 0 0
667 2 -0.1426827692641055 4.018829078459024 3.1664360592016987 38.73180296149241 0 0 0
655 3 0.1942511634047513 3.6322905288543836 3.2659119644952037 33.33264110244962 0 0 0
654 1 -0.1482674064326784 3.0204967201089845 4.1607573206519355 33.33118115390596 0 0 0
88 3 0.2006051180494645 1.6189170941653983 0.971048297533623 33.14854485295101 0 0 0
87 3 0.1981672033514147 1.4704593359088478 7.351335426166472 33.14277683532363 0 -1 0
104 1 -0.1518537105745563 0.7383061842725782 0.1554749198350658 41.42725725590852 0 0 0
689 2 -0.1451159290197905 1.2379105678088125 3.429038554648241 48.438451135080854 0 0 0
107 1 0.07489408512946383 4.430134520287543 0.19658255735068347 42.82770264064383 -1 0 0
108 2 -0.1514140440095411 3.549803252351116 1.2649829478155734 42.84391373388822 -1 0 0
109 2 -0.1499786264811166 3.5885594407626633 7.180208329577787 42.88818242254803 -1 -1 0
110 1 -0.1461001020086807 0.7919949580188554 0.24495125396027248 44.1460163463897 0 0 0
111 3 0.1970248714460959 1.4964141877309705 7.577539297904564 44.0755803093416 0 -1 0
112 3 0.1939045884518203 1.4380395252898048 1.1250805062482645 44.20265969003905 0 0 0
113 1 0.1215702338403352 0.10823978012727939 0.31616218839722254 45.57829636860266 0 0 0
114 2 -0.1452609478108915 3.771501481719284 1.4604886907727648 45.580534974433604 -1 0 0
115 2 -0.1421816717097888 3.650351443498806 7.364015341100344 45.597763347611284 -1 -1 0
116 1 -0.003068281988605525 0.9208231825237337 0.3202223375522263 46.980359676054285 0 0 0
117 3 0.2106587473128632 1.5148264379898524 7.581463344645201 47.02001522088746 0 -1 0
118 2 -0.1428881139213279 1.9378659593533663 1.3584100662315963 47.032716437087345 0 0 0
119 1 0.1177574452473715 0.12485537594825469 0.24377005005869973 48.35409808016052 0 0 0
120 2 -0.1458046121855114 3.794629125753086 1.4760263728513299 48.46578473109903 -1 0 0
121 2 -0.1448873546692614 3.6771833769008784 7.3711061149466275 48.281207012532484 -1 -1 0
105 3 0.1983030649886259 1.4241445790943008 7.4755008676246755 41.42802091702439 0 -1 0
672 1 -0.14461583353934 2.9225426736605433 4.250682006356801 41.41103126734731 0 0 0
687 1 0.1106239708467555 2.2440850349166634 4.38170038305473 48.39760407114732 0 0 0
688 2 -0.1446838673827911 1.5633565260722295 5.604589293304935 48.52504304683099 0 0 0
675 1 0.07709773622341645 2.221788578827757 4.246511515928745 42.80950825981711 0 0 0
676 2 -0.1504305319625689 1.318544578913084 5.31863262384197 42.84640743898364 0 0 0
677 2 -0.1518690841829096 1.473694596957994 3.108997869013289 42.763872549015694 0 0 0
678 1 -0.1441005827033283 3.0032497114910166 4.188781455096042 44.22587851712195 0 0 0
679 3 0.1930596114292518 3.604966336936217 3.2680765890757284 44.23015339678987 0 0 0
680 3 0.2033528082595733 3.77785208950513 4.94486559946975 44.27687244455349 0 0 0
681 1 0.1250044362529823 2.198189886236044 4.358994144612236 45.488031463935634 0 0 0
682 2 -0.1419060832511697 1.6227662654818795 5.6404030555410944 45.45903974884582 0 0 0
683 2 -0.1455919610374354 1.1616434524187897 3.4522504425692495 45.418946611045435 0 0 0
684 1 0.003940044300557489 2.9113230366166167 4.264423497684448 46.95106905794176 0 0 0
685 3 0.2081457999588287 3.3404459879002837 3.3305724057950705 47.07535520386431 0 0 0
686 2 -0.1395523697789211 4.031719790428303 5.171859336093341 46.90430307353598 0 0 0
674 3 0.1940738848176493 3.402723913467699 5.24152920416159 41.38716194744528 0 0 0
673 3 0.1981712521337675 3.7475426952475375 3.58222898841897 41.399215672362295 0 0 0
106 3 0.1967181744887378 1.292493123797473 1.0223630114917523 41.41786993348473 0 0 0
122 1 -0.15545198610143 0.9561004626751448 0.09014174232622824 49.64982830921633 0 0 0
707 2 -0.1427498178058753 1.5270659725063929 2.975938439136236 56.551471477898595 0 0 0
125 1 0.08300501344389891 0.17108808983347504 0.09465162382658152 50.99611530968899 0 0 0
126 2 -0.1505020000963368 3.823712080101713 1.2549787569693982 51.009851488449435 -1 0 0
127 2 -0.151650644986167 3.7181004055515765 7.124786258895537 51.00222077499174 -1 -1 0
128 1 -0.1464619891074353 0.8951424062143954 0.0798605216935265 52.37604640476133 0 0 0
129 3 0.1997386266959745 1.5991099030837257 7.457991018233588 52.413110126438234 0 -1 0
130 3 0.1981236408642958 1.4846127093879513 0.9565831067661997 52.49455920003557 0 0 0
131 1 0.1162423125694245 0.10449788673506641 0.022455925953007154 53.71459299152472 0 0 0
132 2 -0.1444445691045216 3.6255320965622864 1.0121447229718017 53.69462341347008 -1 0 0
133 2 -0.1453914498369681 3.800271802171236 6.924783868665225 53.61271535298386 -1 -1 0
134 1 -0.0004364166190834965 0.8001730504979891 0.02192642234174679 55.10262698255338 0 0 0
135 2 -0.1420398488102211 1.9338474548151026 7.145057449064022 55.0472682951788 0 -1 0
136 3 0.2059902040355194 1.3174940050927622 0.9798368437491057 55.20183810799913 0 0 0
137 1 0.1077168793227595 0.07485597423007921 8.109239264652873 56.50752813518022 0 -1 0
138 2 -0.143738531356082 3.4636156627796626 0.9631348988570585 56.483227729936736 -1 0 0
139 2 -0.1429650866249685 3.8628567468498534 6.885078448282709 56.697646114620476 -1 -1 0
690 1 -0.152159980010886 3.0537760269769856 4.215666446867435 49.677387355856915 0 0 0
692 3 0.1982500595673105 3.6589250986119572 5.056608763475422 49.661488448587534 0 0 0
124 3 0.1980376359925764 1.630404838113057 0.8495415513379112 49.72049264170487 0 0 0
693 1 0.08373381684332223 2.2666669521828116 4.178844328538913 51.0570958162649 0 0 0
694 2 -0.1515855155908174 1.4011913177041841 5.278499479502833 51.09706007809917 0 0 0
695 2 -0.1505632088941337 1.485036573539716 3.0485204862938255 51.10998586671255 0 0 0
696 1 -0.1472100907762617 3.0969437602515257 4.209169812649853 52.36753850351199 0 0 0
697 3 0.2024489480399107 3.8290455074274026 3.400794469744511 52.29749901171684 0 0 0
698 3 0.1961920350717664 3.6518281763214437 5.094210388782617 52.37955180154238 0 0 0
699 1 0.1237543366311954 2.2465088616980937 4.026764188913881 53.645012934444225 0 0 0
700 2 -0.1456776667574523 1.2468420387793058 4.955898865131513 53.65763910559118 0 0 0
701 2 -0.1446380872939846 1.616963367872865 2.8138220535375305 53.5660206201405 0 0 0
702 1 0.003827153429742882 3.0022921829301015 4.155525690637872 55.05994880251397 0 0 0
703 2 -0.1408054488807334 4.085495373671419 3.0793302870873287 55.08569318909496 0 0 0
704 3 0.2087962535161062 3.501175181140391 5.118676123638609 54.92870233003054 0 0 0
705 1 0.1141273857902604 2.274528687494079 4.180033674292106 56.419818085150766 0 0 0
706 2 -0.1425335423307969 1.3636806155905776 5.162597944664703 56.31771040346333 0 0 0
123 3 0.1944433606975728 1.5985612727439142 7.397554845511556 49.56384533036383 0 -1 0
691 3 0.1968112599888085 3.7824311625800555 3.42346883086927 49.57407650986822 0 0 0
140 1 -0.167147523703676 0.9307878802116116 0.22892067389945595 57.7939862074485 0 0 0
141 3 0.1895997524374601 1.6680221643356683 7.6378561386507275 58.032920132176486 0 -1 0
721 1 0.07821725758484865 2.1081245405529208 4.146311449647902 64.31708073828841 0 0 0
143 1 0.05553563531846995 0.040974109377868384 0.38160149894274004 59.01677286962245 0 0 0
144 2 -0.1437625954078116 3.338966330732788 1.1568494449887943 59.0107053142195 -1 0 0
145 1 -0.08510768347158584 0.4843450934310666 8.107859720563223 60.22865965832621 0 -1 0
146 3 0.1836064987560468 1.4064499032758206 7.6155826386369245 60.233673807784214 0 -1 0
147 1 0.08975939479862648 4.208062618029683 0.07212305729059981 61.53505698480957 -1 0 0
148 2 -0.1424673443661675 3.512320259616351 1.2461197260691492 61.55760237584488 -1 0 0
149 2 -0.146748609188008 3.294331392608291 7.176229192776791 61.57919010606097 -1 -1 0
150 1 -0.150312395230683 0.6338790571090726 0.04112524981811676 62.933914388371555 0 0 0
151 3 0.1899692006051044 1.2178191095194395 7.2538778861536 62.85646183136511 0 -1 0
152 3 0.1985890010162218 1.2716075143253531 0.8513559971229306 62.92077613124182 0 0 0
153 1 0.08276687789525913 4.314387695969338 0.044202150846714056 64.26278121272344 -1 0 0
154 2 -0.1480393485077163 3.4175035581150293 1.0910195050783233 64.27247771632565 -1 0 0
155 2 -0.1501037491339707 3.499678921713704 7.0026047697490315 64.274841674626 -1 -1 0
723 2 -0.1484849035117967 1.362804958647862 2.9870005302856844 64.22762229882801 0 0 0
708 1 -0.1569782187443221 3.035423869840795 4.28828756179202 57.8080726402543 0 0 0
709 3 0.1917913825732734 3.4808266352877926 3.3201356766566725 58.01320532757251 0 0 0
722 2 -0.1498081785165068 1.1877322803267905 5.2112401932483055 64.32558727902435 0 0 0
711 1 0.0498769640216889 2.266348883794164 4.536376599140415 59.07739764516269 0 0 0
712 2 -0.1453480666297784 1.0369595155689368 5.0946559021707385 59.01718953128402 0 0 0
713 1 -0.08945471379783776 2.8606741285560555 4.252184216988075 60.26188403464562 0 0 0
714 3 0.1873925249520433 3.8628772238577658 4.00545968866858 60.25318113738104 0 0 0
715 1 0.08876687599574401 2.127946118957364 4.214050886522463 61.524362368962656 0 0 0
716 2 -0.1471308598346644 1.3036416741154173 5.335640957273754 61.547725062041124 0 0 0
717 2 -0.1433533949613591 1.2603388448897008 3.0959200325539062 61.51184984663788 0 0 0
718 1 -0.1493338195928681 2.8892813950168277 4.228608381237088 62.97752343188859 0 0 0
719 3 0.193478192630205 3.519536342014617 3.4055976789775126 62.96182738078447 0 0 0
720 3 0.1900407586942329 3.567723939641925 5.037708308395026 62.98925662223823 0 0 0
142 3 0.1933380643926659 1.4879356024859316 1.1265836988484268 57.62426785353199 0 0 0
710 3 0.197200552103616 3.796922527682814 5.065888162109039 57.69104360363824 0 0 0
158 3 0.1900881376996851 1.3217030758645396 1.0992518296368619 65.53134542076971 0 0 0
156 1 -0.1541730169131185 0.7169966174855048 0.23468651154301934 65.57243838273318 0 0 0
157 3 0.1870440675131773 1.3608339038843964 7.436192829679578 65.58409945789656 0 -1 0
740 2 -0.1475030986356134 1.3986104721912154 4.943833421945121 72.63325660722147 0 0 0
739 1 0.1201349142478163 2.2811273396579104 3.9034951796597777 72.59692089125687 0 0 0
159 1 0.07893870388048982 4.417043648463467 0.12476037028756089 66.96254360676802 -1 0 0
160 2 -0.1519907175170138 3.4948803882406376 1.1601675713391106 67.03581407089708 -1 0 0
161 2 -0.1505141797790798 3.6519513144386893 7.112817804917336 66.92266918380693 -1 -1 0
162 1 -0.1467055625723042 0.7738458265750139 0.10052456686639161 68.3067196465575 0 0 0
163 3 0.201456956683742 1.4478181938741792 7.399741847893967 68.25452760164102 0 -1 0
164 3 0.1964785097780096 1.3769727503103824 0.9472125962798454 68.39513836758823 0 0 0
165 1 0.124861971695894 4.382806975103323 8.020353967399 69.6142792876874 -1 -1 0
166 2 -0.1445567449965017 3.4035967247661785 0.8228164332087736 69.63994127381606 -1 0 0
167 2 -0.1431294440623257 3.770400721107182 6.783730711020075 69.46665292470554 -1 -1 0
168 1 0.0006581710347823289 0.7526750505828229 8.033745376799176 71.02514222446564 0 -1 0
169 2 -0.1415596100160219 1.90078006248359 7.0625648802139285 71.00098390661118 0 -1 0
170 3 0.2116330254051807 1.3161070734775886 0.8250991655191189 71.0141212830392 0 0 0
171 1 0.1275627347526525 0.013074156709076513 7.8799683647826155 72.39798138007642 0 -1 0
172 2 -0.1445762550356824 3.4374114905750317 0.7402583489419262 72.46096142461883 -1 0 0
173 2 -0.1464178553175669 3.821881163725357 6.6410766685773694 72.41575734603354 -1 -1 0
738 3 0.2089197927635085 3.521123499741175 4.841898284318429 71.15252928692088 0 0 0
741 2 -0.1445811011553471 1.5838731695210246 2.6767848029298733 72.6779497432242 0 0 0
737 2 -0.1412105017585888 3.994754232995981 2.9145980865437195 71.17102204683361 0 0 0
727 1 0.07404794965711987 2.168673768375785 4.054133077915703 67.0660316743638 0 0 0
728 2 -0.1493748316662269 1.2716297582025191 5.149464972518582 67.1880941932651 0 0 0
729 2 -0.151915926124761 1.3952301865506862 2.9241765949017564 66.9641070178268 0 0 0
730 1 -0.1499788306382973 2.9569060223015717 4.016528913664084 68.45579128122988 0 0 0
731 3 0.1992083940439162 3.603808068724408 3.1971857776416246 68.42318514859477 0 0 0
732 3 0.2014936645304512 3.5326309523719686 4.855037888490539 68.50171497984844 0 0 0
733 1 0.122465510944208 2.175867923005453 3.867103755779905 69.77371186227428 0 0 0
734 2 -0.1426354353163539 1.1647764917089323 4.813159141157835 69.74041358639171 0 0 0
735 2 -0.1438711977746207 1.5076472853533491 2.629211990468449 69.73487007547998 0 0 0
736 1 -0.001471739333985938 3.0082286343704148 3.938052286726568 71.15696069548099 0 0 0
724 1 -0.1595465287951906 2.9276160709425256 4.1400903253554 65.6605768116188 0 0 0
726 3 0.1896075712634066 3.5350961456441112 5.004397570984775 65.62275522156368 0 0 0
725 3 0.1872578001566244 3.5458317176909744 3.2736763333468355 65.6834793321804 0 0 0
756 2 -0.1424481137145008 3.9782820440001587 5.185147850972266 79.26335993624065 0 0 0
758 2 -0.145617543776075 1.4873424995226763 5.59947460918691 80.60372101330107 0 0 0
757 1 0.1171341351472332 2.1159476947935993 4.339452972877366 80.6514835804255 0 0 0
177 1 0.06876477877346457 4.4351587276699425 8.10455083654304 75.07890246039433 -1 -1 0
178 2 -0.1511618352490371 3.658684405973458 1.12894272036046 74.9569799251288 -1 0 0
179 2 -0.1527845467176687 3.555518680537527 7.054231712468951 75.08857258978055 -1 -1 0
180 1 -0.1468527714804377 0.7955843643867448 0.026338734943627852 76.44997712785059 0 0 0
181 3 0.1930574133980083 1.4028511548714657 7.216642665970125 76.41220784807952 0 -1 0
182 3 0.1973215667076101 1.462954456738966 0.813723722943101 76.31147963807398 0 0 0
183 1 0.1249665551143214 4.424140555604732 0.21993378451265405 77.750301324342 -1 0 0
184 2 -0.1459961921452979 3.7835579261176235 1.4616776794381512 77.6503711974337 -1 0 0
185 2 -0.1455685590722808 3.4401233007455474 7.3972563157811 77.77634436427573 -1 -1 0
186 1 0.008186102998600793 0.8006207663030054 0.12866653997682664 79.16703160036191 0 0 0
187 3 0.2109961720143818 1.2342435053545096 7.233611693647908 79.15480958624795 0 -1 0
188 2 -0.1426095417483958 1.8673477152257085 1.0550305849763746 79.14610408531009 0 0 0
189 1 0.120199129842006 0.02057412953618391 0.17389007836446846 80.56015025394628 0 0 0
190 2 -0.1454844591197561 3.803671098906806 1.3972776813721692 80.6073987297675 -1 0 0
191 2 -0.1452164893845795 3.493924689893934 7.306712541692599 80.50288504455344 -1 -1 0
754 1 0.0006093548883425483 2.985660537792328 4.1717192851778595 79.30036323778269 0 0 0
755 3 0.2062828003123738 3.4550380039382986 3.199691247633388 79.40347546255441 0 0 0
759 2 -0.1462591006174183 1.0379795645645467 3.4031646453009716 80.68270680851269 0 0 0
745 1 0.0751432113757918 2.2678351946339905 3.9637061292385356 75.22304037609763 0 0 0
746 2 -0.1533576182011971 1.3964399458884555 5.016094017784502 75.17471559298856 0 0 0
747 2 -0.1513696518902856 1.4908385640174946 2.7876033437481818 75.27939646566733 0 0 0
748 1 -0.1465606076342949 3.0178314740648187 3.9746828624811634 76.61342300240632 0 0 0