LAMMPS data file via write_data, version 2 Aug 2023, timestep = 4133, units = real

568 atoms
3 atom types

-2.7079702669804933 3.5469702669804937 xlo xhi
-3.137762894387008 3.137762894387008 ylo yhi
11.306575141750713 235.38502685824866 zlo zhi
0.005221709884474438 -0.0539292360987208 0.08306388264262483 xy xz yz

Masses

1 12.0107
2 18.998404
3 1.00794

Atoms # charge

1 1 0.07155350894885427 1.3542798903846238 1.133136123978431 11.978960373446373 0 0 0
2 2 -0.1316385811442904 0.11311813431575457 0.5357794202175059 12.2149534553266 0 0 0
3 2 -0.1323126287253159 2.27783904739249 0.5721593089265933 12.852134998255032 0 0 0
4 1 -0.1975659251464474 1.248769118977421 2.718018531712748 12.228330847814387 0 0 0
5 3 0.1849549547620858 2.213090585989458 -3.08641634453617 12.24794495698608 0 1 0
6 3 0.1970088103994297 0.6429865792072667 3.123750916076094 11.453769806765475 0 0 0
7 1 0.06312704969789376 0.5691421996744839 2.909795734406553 13.554030831544939 0 0 0
8 2 -0.1287464661586221 -0.7257527650311688 -2.9528697453063946 13.682740877255856 0 1 0
9 1 -0.1014902214591218 1.3916730945593665 2.6474818044589044 14.592092730207927 0 0 0
10 3 0.191713207228973 2.4342860872076235 2.606880868422063 14.403314200391478 0 0 0
11 1 0.1061167984715128 0.7983134011324533 2.2818859313153443 15.915673025210756 0 0 0
12 2 -0.1205502238998527 1.791601191140666 2.1249518317968366 16.879741984232925 0 0 0
13 2 -0.1215909762678873 -0.05675867722993688 -2.9452825131308145 16.33120867444161 0 1 0
14 1 -0.1854300921678783 -0.0005667590799594002 0.8887357734121824 15.781590181488415 0 0 0
15 3 0.1968696002105954 -0.56206912420916 0.9635787013033794 14.888377875227198 0 0 0
16 3 0.1930300850845229 0.70627046485277 0.09142919867253241 15.622920825938099 0 0 0
17 1 0.1189443141518841 -0.9951956986972725 0.48149595102493903 16.877814887493592 0 0 0
18 2 -0.1196601682682663 -1.9146253360986423 1.5070279977692294 17.04023442327792 0 0 0
19 2 -0.1202100995864588 -1.7109607352515726 -0.6307178122564125 16.41295964679468 0 0 0
21 3 0.2055004976261239 0.5547192940797028 -0.35526070038707447 18.181671603014273 0 0 0
20 1 -0.1686254810603366 -0.3474665395337997 0.17968594074218958 18.288419220849246 0 0 0
34 3 0.179002397042643 -0.46326737068123514 0.4786182726748591 23.31049064190221 0 0 0
32 1 -0.2009266796425911 -0.49038698212363174 -0.5849248197964525 23.240668252015954 0 0 0
33 3 0.1878247296609636 0.5146311455101253 -0.8868436924270093 23.091683848785856 0 0 0
36 2 -0.1245731300911749 -2.3363590565811534 -0.8026084047100999 24.784691834095778 0 0 0
37 2 -0.1243799554830305 -0.8913304441267682 -2.5331336930729704 24.643664560644613 0 0 0
22 3 0.2002678041209361 0.006364563997744099 1.1135874401707855 18.673742752527104 0 0 0
23 1 0.1374632127914001 -1.193567710408386 -0.513752151081948 19.376059617990933 0 0 0
24 2 -0.1166109217611952 -2.416290138086934 0.15310334346666865 19.500719795497815 0 0 0
25 2 -0.113627559823021 -1.4646523394289397 -1.8486769079158385 19.040968759586942 0 0 0
26 1 -0.07651099092457848 -0.3891983266888368 -0.43570256317539924 20.723598861330373 0 0 0
27 2 -0.1194378884121136 0.9072744538873856 -1.1607225361149356 20.668729011127546 0 0 0
28 3 0.1827033644895191 -0.18055430021146934 0.5967154651696438 20.866868118051073 0 0 0
29 1 0.1169989094374315 -1.2697020552455127 -0.8776542078764913 21.941339021618884 0 0 0
30 2 -0.1243326693709062 -2.4405005769738337 -0.11833546076800783 21.950291245000972 0 0 0
31 2 -0.1200915341225537 -1.6097427627361236 -2.2410851930074194 21.861939485466024 0 0 0
35 1 0.1100890840096349 -0.9954288058827196 -1.137471688732933 24.616292590794 0 0 0
52 3 0.1947986804107865 0.6821098355211679 1.1743058059244178 30.651102360163605 0 0 0
51 3 0.1835799082624591 1.2137475597783927 -0.4395946046656616 30.848037193712546 0 0 0
50 1 -0.1948276152253422 0.33977012323297906 0.18310126238204205 30.847395859382807 0 0 0
38 1 -0.198677780903651 -0.16092432342123741 -0.5475558642386358 25.793217352277303 0 0 0
39 3 0.187582733901033 0.6849065833155019 -1.1882332987102808 25.92303724336536 0 0 0
40 3 0.186066502749232 0.21043578293061627 0.4196560010388759 25.536562408877327 0 0 0
41 1 0.1304866933126824 -0.9348668339356068 -0.39002047913381954 27.121584935755354 0 0 0
42 2 -0.1194010097439342 -1.8284969246631064 0.6874627873664556 27.004721697427204 0 0 0
43 2 -0.118162558233773 -1.6842836628928188 -1.5550424146407806 27.367626159633495 0 0 0
44 1 -0.07092122723401025 0.0828638554732426 -0.09656656966541322 28.276980637770773 0 0 0
45 3 0.1888076702464831 0.8961070904303408 -0.7905935358229401 28.168393265326056 0 0 0
46 2 -0.1199431515389273 0.6387873222426048 1.2926220701711197 28.13454031193738 0 0 0
47 1 0.1244274593630596 -0.5916750928060988 -0.24632793683608334 29.698919212059405 0 0 0
48 2 -0.1211464574923542 -1.7476305485791532 0.5575224591493106 29.74055769346658 0 0 0
49 2 -0.1216019881131996 -0.9729625988301409 -1.5740322271222018 29.905396399371654 0 0 0
53 1 0.1083656752210546 -0.38598786835448573 0.203417062776456 32.23872097846161 0 0 0
54 2 -0.1240419331941466 -1.2887910187356053 1.274500021615785 32.25587866135744 0 0 0
69 3 0.1910746968301629 1.6876701514335188 -0.20881186018190467 38.80956362887315 0 0 0
68 1 -0.1940099409713647 1.0174641252947012 0.6168447517926969 38.68061750149216 0 0 0
70 3 0.1881475514411488 1.6054950133576193 1.481219715181878 38.456815609426435 0 0 0
56 1 -0.1962917380449082 0.5935757837329048 0.3548494794236423 33.45004627883117 0 0 0
57 3 0.1889773609216662 1.4995322855062838 -0.18555332114333423 33.25741036001215 0 0 0
58 3 0.1855869088733323 0.8472482313569873 1.3907720708330786 33.49180024771079 0 0 0
59 1 0.1268313530782129 0.08050051085417609 -0.085944791695729 34.83637574387818 0 0 0
60 2 -0.1185237177117756 -1.2518088100339426 0.33505403786973265 34.95636888733463 0 0 0
61 2 -0.1183150326586601 0.07724246610290253 -1.4939771081931221 34.867988306644335 0 0 0
62 1 -0.06493739969532747 0.8918671542955963 0.46827639724380044 36.07271508826749 0 0 0
63 2 -0.1189479142417027 2.2326882350443134 -0.09564016146693222 36.12990474486285 0 0 0
64 3 0.1924075300773898 1.0356627049157034 1.5100668247698121 35.91089586046287 0 0 0
65 1 0.1238292474685177 0.13468561805683477 0.29309424138072604 37.48110667442063 0 0 0
66 2 -0.1193113968364005 -0.9832455649778384 1.13587675211051 37.5241625467396 0 0 0
67 2 -0.1192592732170127 -0.3262941579955978 -1.0266845037935393 37.618533694915456 0 0 0
55 2 -0.1236794851806079 -1.1345324228679707 -0.9613185714045254 32.39563881991129 0 0 0
71 1 0.1053948321763309 0.24493558849538344 0.872607363784017 40.03916233716758 0 0 0
72 2 -0.1240393381607031 -0.44103512746078977 2.0883614327760287 39.9713422908834 0 0 0
73 2 -0.1244720302453585 -0.6938124608806393 -0.13910436520586078 40.234059535423754 0 0 0
74 1 -0.2032696651333251 1.1893999040400298 0.9179713271602323 41.25645409587219 0 0 0
75 3 0.1783229683479892 1.6039952066478333 -0.055677456548223425 41.412207118514715 0 0 0
76 3 0.1898583494164697 1.9933675701305518 1.580106138948144 41.0104769309045 0 0 0
77 1 0.1283675131433099 0.5590008973612939 1.3986131511574995 42.60172746552874 0 0 0
78 2 -0.1199442529760078 0.8364275789666675 2.7566977777717487 42.78365983978066 0 0 0
79 2 -0.1201480566193223 -0.8361351818989495 1.243600260287352 42.581603947583254 0 0 0
80 1 -0.06514028609703551 1.186633288962462 0.5631081288834863 43.75370438793385 0 0 0
81 3 0.1850979387583414 1.477467668234171 -0.38311398648477146 43.3546249412321 0 0 0
82 2 -0.1175016881300798 2.4838540323001324 1.1473163682756273 44.2162910130267 0 0 0
83 1 0.1271963071233392 0.22484675409280497 0.2384124081970076 44.95896200587027 0 0 0
84 2 -0.1192716816546266 -0.2908480141275347 1.4148385525062186 45.50288534560281 0 0 0
85 2 -0.1163783281615106 -0.8458154043650556 -0.5286150006430974 44.4747753918438 0 0 0
86 1 -0.1906923548628373 0.9539036988694041 -0.5228352490191401 46.08049737665695 0 0 0
87 3 0.2014835485083842 1.5508293445207855 -1.2985688019753892 45.652199676443814 0 0 0
89 1 0.1145026907372917 0.024249155178881487 -1.0917423060306999 47.21513625806869 0 0 0
90 2 -0.1208297391456814 -1.3175282784714446 -0.8128955522177224 46.93315339283851 0 0 0
91 2 -0.1225412673909816 0.1601475201768343 -2.470933679411404 47.26663148616571 0 0 0
92 1 -0.1962910430704651 0.3989952732165847 -0.4930003432974037 48.60624688313001 0 0 0
93 3 0.1898873466274252 1.4219414537955224 -0.7429928568917181 48.770406254643774 0 0 0
94 3 0.1842198188559878 0.3571962669176938 0.5729375482569288 48.49863325579316 0 0 0
95 1 0.1141857936972517 -0.28990654998087706 -0.956036311328933 49.90899033537836 0 0 0
96 2 -0.1224579823090459 -1.6791494595437406 -0.8541483824007905 49.76280606432651 0 0 0
97 2 -0.1222222377022405 0.006540159969547599 -2.3152617172887497 50.104851777580585 0 0 0
98 1 -0.07120445837223893 0.18096969449313693 -0.11331542811536544 51.16176743214483 0 0 0
99 2 -0.1231946733430336 1.5984183292476448 -0.35234284316241693 51.4492123919372 0 0 0
100 3 0.1883201012568093 0.07094328557780738 0.9017939013535918 50.859763380126815 0 0 0
101 1 0.1204152067591421 -0.6851194375179488 -0.2941650846381565 52.49569108180889 0 0 0
102 2 -0.1203607796157228 -1.9702812966620233 0.2125666819218992 52.307775788992586 0 0 0
103 2 -0.120512017942353 -0.8144000661725297 -1.6623235317797354 52.79091432297737 0 0 0
88 3 0.1870309259633484 1.6541301572553113 0.15906657321462614 46.5173772863689 0 0 0
107 1 0.1066784766858217 -0.7751507696243007 0.532755411507603 55.09062818055743 0 0 0
108 2 -0.1219238374773459 -1.5888002656371667 1.6625798750559944 55.07459004107043 0 0 0
109 2 -0.1225470697213764 -1.5932196937433345 -0.5806613851920601 55.29677310041394 0 0 0
110 1 -0.1955725239592686 0.230068450710065 0.6554286802426894 56.265607201082325 0 0 0
111 3 0.1792378001699516 0.7281019153899604 -0.28695149854071866 56.36049207458355 0 0 0
112 3 0.1885909130960211 0.9726093912839917 1.372574004167737 55.97555634735252 0 0 0
113 1 0.1194873952960304 -0.32381034227597816 1.0322761504819122 57.68034269311538 0 0 0
114 2 -0.1226841563027375 -0.4480142951841217 2.4220961224038358 57.7894000080439 0 0 0
115 2 -0.1234978524006057 -1.5955644728626979 0.4788698651349561 57.83902589739526 0 0 0
116 1 -0.07274276943161889 0.6190081898619146 0.4937898099357265 58.79168975142313 0 0 0
117 3 0.1775243010348134 0.9174768707137515 -0.4573973297306231 58.416253342992896 0 0 0
118 2 -0.124127957805246 1.920150709505661 1.24058115160129 58.81818199848317 0 0 0
119 1 0.1138998837155117 0.0333341405556844 0.35639075343089166 60.25982052174084 0 0 0
104 1 -0.1885128662855743 -0.048129670652052425 0.4153710899837053 53.69372259756756 0 0 0
121 2 -0.1244714660015236 -1.2626588479469012 -0.14435427919297616 60.23092091790476 0 0 0
105 3 0.1884455521091477 0.8692012843849608 -0.10371600640840972 53.85091690578567 0 0 0
106 3 0.1925482727016548 0.19370209603253308 1.4320080357394285 53.42758009608191 0 0 0
125 1 0.1042113394938851 0.5236227024355902 -0.7819539604274053 62.65840629713883 0 0 0
126 2 -0.1239848547748845 0.5037702990349104 0.4490354997752708 63.314295580316994 0 0 0
127 2 -0.1213366400209279 -0.7465881477794631 -1.3514454063539596 62.78975976923245 0 0 0
128 1 -0.1852147383468018 1.5787084126158133 -1.7136234155514094 63.32077328493668 0 0 0
129 3 0.1956684354816248 1.564045331079667 -2.644611816502719 62.7848808564659 0 0 0
130 3 0.1949415906452417 2.530157299671097 -1.268198902998285 63.13718550307487 0 0 0
131 1 0.1167746247117482 1.5299647566738042 -2.0087128757331913 64.84270399957592 0 0 0
132 2 -0.1188140528804557 0.21429915955245749 -2.283144673095351 65.21603020738404 0 0 0
133 2 -0.1204455535583293 2.28948091022988 3.1169472099441884 65.10558051924663 0 -1 0
134 1 -0.05036773921459717 2.0735168828929895 -0.8018600755894241 65.69901483434944 0 0 0
135 2 -0.1200124122963566 3.3015671879520463 -0.20513253961317535 65.08403302210189 0 0 0
136 3 0.1965464562625645 1.3191696933093198 -0.05470638802048233 65.60700930188607 0 0 0
137 1 0.1066040454265915 2.254860145452497 -1.0230065571280407 67.23562331452227 0 0 0
123 3 0.184637628225866 0.9183975132935926 -1.5417531749111855 60.67736670289893 0 0 0
122 1 -0.1948415574982995 0.8859008099858294 -0.5771916008161755 61.13492909536277 0 0 0
124 3 0.1877239274675293 1.8893831366209648 -0.23535408763330823 61.05437281385461 0 0 0
120 2 -0.1252221135714141 -0.021889355294902213 1.6306046684267232 60.84566894967526 0 0 0
143 1 0.06864085693447666 1.8088248698139298 0.30553760371756455 69.48302449243184 0 0 0
144 2 -0.1321148414728756 0.43424495854914724 0.03673727067252042 69.51920860396166 0 0 0
145 2 -0.1344254350076491 2.4588453509218855 -0.7253353523713666 70.15164912639928 0 0 0
146 1 -0.2035570501937303 2.0779509061208588 1.6512919465498155 70.26769702893976 0 0 0
147 3 0.184426748782791 2.968149859748636 1.5555352394673236 70.85755410659908 0 0 0
148 3 0.1899957276122628 2.266134958770345 2.40968734312804 69.54850811183249 0 0 0
149 1 0.09050802274149436 0.9682361729296605 2.1563121088074566 71.16769046930776 0 0 0
150 2 -0.1278592496935234 0.8131650875936987 -2.8035667865867513 71.41839791343877 0 1 0
151 1 -0.09975265231060307 0.23393028151764383 1.224319455678676 71.78844853316215 0 0 0
152 3 0.1884320835785417 0.48559830796166104 0.2060862242880961 71.650110542059 0 0 0
153 1 0.1036189290572327 -0.8882165839943679 1.6032905573255358 72.70350007595147 0 0 0
154 2 -0.1183736019408224 -0.3718638593921515 2.2530623005463064 73.83615481634521 0 0 0
155 2 -0.1292398238343566 -1.7633055177695227 2.4877170690014068 72.05335423875587 0 0 0
156 1 -0.1851688544782543 -1.689405866539708 0.3000044799516983 73.14385062544143 0 0 0
157 3 0.1846862244867367 -2.232059799757476 -0.05496530407061151 72.28571102942576 0 0 0
158 3 0.2030681455811726 -0.976296379262289 -0.44986354561878406 73.35308696534982 0 0 0
138 2 -0.1275471486090079 1.2040081644659653 -1.8142544247235266 67.71713391974242 0 0 0
141 3 0.1933768305965003 3.2647932996808855 0.733516348568378 67.94793705857 0 0 0
139 2 -0.1238933690406809 3.4516609473385342 -1.7048811174694425 67.49310569847962 0 0 0
140 1 -0.1815053468413754 2.276839045962994 0.33131521801962194 68.00075949177305 0 0 0
161 2 -0.116669478611739 2.6024843961935042 -0.37384022966068287 74.3159228246975 -1 0 0
142 3 0.188789378089699 1.6729764651636625 1.0264993449126458 67.4653006333659 0 0 0
178 2 -0.1314463754179445 0.5586072529245856 0.6106979641420707 79.78030457291366 0 0 0
177 1 0.07397885419945036 0.09517179321491831 -0.5141759517470579 80.4656342663957 0 0 0
176 3 0.1920907521177065 1.6304812341439066 -1.650349371131793 79.57315233836428 0 0 0
162 1 -0.1668062786873601 -1.8214661781140888 0.2843107206570945 75.76837676842696 0 0 0
163 3 0.2142440484038792 -1.0288388111359839 0.9999592499969627 75.80417150192784 0 0 0
164 3 0.2046637502640152 -2.4693948940560815 0.5783558927250603 76.56575675761864 0 0 0
165 1 0.1163717327602069 -1.2214630426461732 -1.0816743477934696 76.17037768944951 0 0 0
166 2 -0.1179031798795313 -2.2409572049570134 -2.017183895506899 76.35754336352075 0 0 0
167 2 -0.1164655636288907 -0.3941879545372218 -1.5445676164723123 75.14634289805723 0 0 0
168 1 -0.04231000432799438 -0.39168319658833894 -0.9107721146249483 77.49413804940498 0 0 0
169 2 -0.1213499957260515 0.8121519586945767 -0.04664982367576265 77.22913916573856 0 0 0
170 3 0.1865879188738208 -1.0219627652451382 -0.40287648828402167 78.18199650923923 0 0 0
171 1 0.105393371552463 -0.012063141556969192 -2.1590179668202385 78.36363065934057 0 0 0
172 2 -0.12694463545541 -1.1464138487197744 -2.9536284159585384 78.55315877914833 0 0 0
173 2 -0.1205674057525665 0.9247412837667457 -2.9221648834514387 77.6696927476248 0 0 0
174 1 -0.1906741095503909 0.5885060232534034 -1.806993166612739 79.75484997745795 0 0 0
175 3 0.1903992654760421 0.5078802618893761 -2.639329620166837 80.4473539822289 0 0 0
179 2 -0.1324640115972021 -1.3042203543969104 -0.47084718555108207 80.49539232937727 0 0 0
160 2 -0.1173359722658173 3.154312281323497 1.8038484140800413 74.39324332877722 -1 0 0
159 1 0.1306008812337077 -2.572124120871773 0.5021129654842613 74.39663424445621 0 0 0
193 3 0.1817255736383186 0.028986213021526375 -0.6110542572551774 86.5675121193898 0 0 0
194 3 0.18525410650072 1.346368150484195 0.35056792664851244 86.99719126680431 0 0 0
192 1 -0.1995842626319836 0.3033740421438256 0.4008854366883221 86.76763551664058 0 0 0
180 1 -0.1881657077798129 0.6728669955219737 -0.5076767552400874 81.92044187805305 0 0 0
181 3 0.182027324321499 0.42360781370363654 -1.4445871960732903 82.38315739293373 0 0 0
182 3 0.1923519285890859 1.7441578890047476 -0.4509944913893835 81.84372717354303 0 0 0
183 1 0.1123044354964846 0.21179330689273046 0.6449010721406281 82.81994170033848 0 0 0
184 2 -0.1274316357646202 0.7888983811049703 1.846631088514918 82.38218545915893 0 0 0
185 2 -0.1255820791714362 -1.1803655458419653 0.783974900487626 82.74648656413747 0 0 0
186 1 -0.07194306455736751 0.6618907829069451 0.27906680815260865 84.3023436409052 0 0 0
187 3 0.1777600265852326 0.25907941699820647 -0.6894552994210499 84.48829301134175 0 0 0
188 2 -0.1234773862644553 2.1204984240165414 0.1624093718186841 84.3989995722099 0 0 0
189 1 0.1189984490406349 0.08511963870424921 1.185218080233136 85.46025545097027 0 0 0
190 2 -0.1239026458467696 0.752779619221204 2.4164056174604176 85.52184753720687 0 0 0
191 2 -0.1222188545423063 -1.2900005102011576 1.435933506068619 85.26672151842213 0 0 0
197 2 -0.1229044853278161 -1.7502895434989552 0.5241284295309887 88.05282467831002 0 0 0
195 1 0.1128262220877995 -0.4076926961760865 0.9174407468652048 88.0543284871655 0 0 0
196 2 -0.122926471616454 -0.35884643289895024 2.3111274356969065 88.10113935919004 0 0 0
211 3 0.1860504839970973 1.3133897370025167 -0.7229263003323827 94.42414301791767 0 0 0
210 1 -0.2000288677981473 0.5229735668885134 0.0006565056927931856 94.36943092167674 0 0 0
212 3 0.1819577529048501 0.9641965448553207 0.964359333786557 94.20985628786975 0 0 0
198 1 -0.192358087348825 0.34616618862899706 0.3181015279358941 89.29330657606911 0 0 0
199 3 0.1875105208014325 0.7414455794519457 -0.6313560055329654 88.97896055765807 0 0 0
200 3 0.1919391509821544 1.1758702958911433 0.9558285485738627 89.53705657367836 0 0 0
201 1 0.1271326885732204 -0.4667168369610444 0.17124126978442344 90.58134256186572 0 0 0
202 2 -0.1181377062967816 -1.2707165623258974 1.3097412700038356 90.72954375657255 0 0 0
203 2 -0.1187983490439889 -1.3220607331055754 -0.9311043233539613 90.46945792039494 0 0 0
204 1 -0.07066928239817864 0.4839977645130116 0.01078296508164156 91.86191126397007 0 0 0
205 2 -0.1197420088738025 1.5367902459794252 -0.9809273044012392 91.62410541246074 0 0 0
206 3 0.1871191686460753 0.9484902432451361 0.9602300960401968 92.03838389685768 0 0 0
207 1 0.1229441507838594 -0.3517801337516495 -0.348103109067444 93.141995411068 0 0 0
208 2 -0.1220949342423532 -1.5457689799144243 0.3904320544062716 93.1829125802423 0 0 0
209 2 -0.1204130917841593 -0.6903894701091948 -1.7186543306554574 93.16659965584637 0 0 0
213 1 0.1091070699079952 -0.15165410313316174 0.0865133414972381 95.7600204174073 0 0 0
214 2 -0.1244342919656529 -0.9023262631795184 1.2680434655485953 95.83225207584097 0 0 0
215 2 -0.123839667646244 -1.031925463929634 -0.9794900641624378 95.90636180893077 0 0 0
216 1 -0.203499620885696 0.927984135097986 0.03176656079533302 96.91158114654586 0 0 0
217 3 0.1851890632597704 1.2192094670949452 -0.985131664637183 97.03021373780744 0 0 0
218 3 0.1860903765135782 1.8338179615475871 0.5336185870610604 96.66456546036204 0 0 0
219 1 0.1328474654240274 0.43681574783791 0.5822293507998593 98.2605585553276 0 0 0
220 2 -0.1185645237928136 0.41726461548256033 1.983742553238303 98.20651934345432 0 0 0
221 2 -0.1183269888286845 -0.8810723757811445 0.14356451070753984 98.45540110880248 0 0 0
222 1 -0.06781695817775696 1.3449355134163818 0.11654217891376373 99.45375479110868 0 0 0
223 3 0.1936141302814548 1.7295833866689243 -0.858362171893952 99.2566802002144 0 0 0
224 2 -0.1169278199815765 2.5770007724053743 0.9421386476123836 99.58947303818674 0 0 0
225 1 0.1316168592381452 0.48550932521924617 0.12690604599337263 100.76591296084773 0 0 0
226 2 -0.1172565346596201 -0.3226803848109143 1.2755904156142734 100.78043451875345 0 0 0
227 2 -0.1175201857210445 -0.3654402804788148 -0.9842238747916041 100.75075379723381 0 0 0
228 1 -0.1917409083544772 1.333574692160977 0.10017803135934367 102.06215743197649 0 0 0
229 3 0.1918807727563899 2.1736357549303555 -0.5529615961790935 101.93918495926879 0 0 0
230 3 0.194578073478892 1.7091213621005892 1.086041038311977 102.24141958163756 0 0 0
231 1 0.1089767002415547 0.5134095633391449 -0.34623589382052256 103.3032163192656 0 0 0
232 2 -0.1231175490706602 -0.7146601620284441 0.31933843151792773 103.29240407400204 0 0 0
233 2 -0.1232465456558471 0.24967176522127943 -1.7149418616954057 103.2071530775644 0 0 0
234 1 -0.1961066373059738 1.2497911170657425 -0.0866381831513725 104.66145188553625 0 0 0
235 3 0.1953943920874464 1.9111873073616659 -0.9079258035304387 104.79706789768517 0 0 0
236 3 0.1826651387109399 1.8864132098336341 0.7710271352687452 104.61973498161557 0 0 0
237 1 0.1225920251760341 0.2837169376964961 0.015543161349083068 105.85657065488222 0 0 0
238 2 -0.1197246295083054 -0.3884541032480868 1.246197737896305 105.77750201302362 0 0 0
239 2 -0.1200529187329919 -0.6819384526388061 -0.9948054998212421 105.73715643789939 0 0 0
240 1 -0.06748721693646298 0.9947513527713867 -0.1056776643162376 107.26110338414759 0 0 0
241 2 -0.1194976299427792 1.8274084160274615 -1.305416712857993 107.31212055337514 0 0 0
242 3 0.1902203173291918 1.6082370266185162 0.7567850216991583 107.32693147374391 0 0 0
243 1 0.1242615500520387 -0.008022207784215585 -0.03325513660482926 108.51575819805366 0 0 0
244 2 -0.1191603608885738 -0.7103564745431385 1.177371419088947 108.47338215337288 0 0 0
245 2 -0.1180064634071844 -0.9503631409902358 -1.072094470545561 108.45154958276075 0 0 0
249 1 0.1098404325193824 -0.09490127987587282 0.382271140360289 111.11782857590002 0 0 0
250 2 -0.1251841687307155 0.0004437680832718449 1.769584213783673 111.25175792404546 0 0 0
251 2 -0.1247707565722817 -1.4423853738342578 0.0636274554133518 110.94594198511075 0 0 0
252 1 -0.198424811082377 0.441503568619118 -0.29903072684485377 112.40969527681311 0 0 0
253 3 0.1768193193401132 0.7778396050053944 -1.279604989225125 112.15260760379599 0 0 0
254 3 0.1949019636251426 1.3050546964117276 0.21975853186418037 112.77032247514522 0 0 0
255 1 0.1244797262679756 -0.575467575077564 -0.4256358249335892 113.56300640046061 0 0 0
256 2 -0.1201289029986556 -1.2307597870783882 0.8033864524113477 113.76561032101463 0 0 0
257 2 -0.1224843973154753 -1.5461018592796458 -1.3804011928962443 113.2126258242923 0 0 0
258 1 -0.07687837591828243 0.193115826591312 -0.8704742342764149 114.85986596852466 0 0 0
259 3 0.1892779739478846 0.7625307128876795 -1.7317944568752843 114.60554534968914 0 0 0
260 2 -0.1224884142227443 1.1552933151081541 0.1440808681686634 115.28775650673941 0 0 0
261 1 0.1207874044133323 -0.7826697856684903 -1.3073341977466242 116.05692512620466 0 0 0
262 2 -0.12045104262017 -1.929471027451937 -0.4938539966077573 116.10294052120015 0 0 0
263 2 -0.1196464517595587 -1.1976530937314265 -2.638100514538866 115.87272910505428 0 0 0
247 3 0.1878151411082135 0.9616982545505621 -1.1405594452692984 110.05008802239709 0 0 0
246 1 -0.194332059646581 0.715410723880467 -0.11192571342805069 109.857915250752 0 0 0
248 3 0.1875678357501492 1.6220978038520242 0.45075116703480544 109.74427996023093 0 0 0
267 1 0.09693944308696809 -0.6097107991660025 -1.6626778730735512 118.73416259518359 0 0 0
268 2 -0.126217589151153 -1.9163968264069429 -1.223793356851326 118.81198962417086 0 0 0
269 2 -0.1276500925223741 -0.6088207455245893 -3.062495632622317 118.8449050574135 0 0 0
270 1 -0.1978897225701862 0.19959578566317404 -1.0604078517148245 119.90350778964753 0 0 0
271 3 0.1853885024883754 1.2282853702294991 -1.2183261343891205 119.64735276846895 0 0 0
272 3 0.1723902015144211 0.04643239765133478 -0.0013694856434858238 119.86965090078748 0 0 0
273 1 0.1160042183967069 -0.09451704429804852 -1.4640286999095669 121.3767689471654 0 0 0
274 2 -0.1249427650296981 -1.4305714777545242 -1.8784133079375338 121.53365275761526 0 0 0
275 2 -0.1262478025987908 0.7359136520652081 -2.5220536424994986 121.79626686004424 0 0 0
276 1 -0.07072133107982036 0.18431762789325745 -0.148669113223447 122.17109526806412 0 0 0
277 2 -0.1227847234421685 1.6198440002393184 0.09156790291419714 122.32700343810993 0 0 0
278 3 0.1766989736503605 -0.15429589610732908 0.6748955137134574 121.58571707611614 0 0 0
264 1 -0.1880048198589668 0.009900708560844684 -1.189483825054449 117.35447332814752 0 0 0
265 3 0.1870199000120387 0.8839095358297122 -1.7758823375288115 117.18061391897558 0 0 0
266 3 0.1879087750619469 0.32246254168300803 -0.1525936905203671 117.44612051353072 0 0 0
285 1 0.0896564345339823 -1.1704247762909694 1.6045892425695008 125.5063313833943 0 0 0
286 2 -0.123352352315078 -2.471774771524135 2.0398266300283017 125.14970421509184 0 0 0
287 2 -0.1262521733792135 -1.2819950394154358 0.5089236785354752 126.37101940329774 0 0 0
288 1 -0.1078554454603 -0.38853996228835586 2.6993720286473217 126.13791391941696 0 0 0
289 3 0.2054720310441594 -2.488544003892018 2.5488316947229364 127.70700266570661 0 0 0
290 3 0.1969466169526789 0.29166257415514796 -2.9980605580240747 125.56909453497505 0 1 0
291 1 0.07471346297392181 -0.5361280127411354 3.14275024618142 127.3922821187034 0 0 0
292 2 -0.1222668185104268 -0.10453170758580477 -1.908558020733516 127.75777577110206 0 1 0
293 1 -0.1624022732123777 -1.5531194176306218 2.381239410312572 128.21523549561095 0 0 0
294 3 0.2086288658601225 -1.3006374884252287 1.329605789115082 128.27374815642085 0 0 0
295 1 0.1107233060318947 -1.7808455781430892 2.873921086682451 129.68758622751153 0 0 0
279 1 0.1189117997030823 -0.5697597448308884 -0.10335524561788922 123.59524993633602 0 0 0
281 2 -0.1258719592439601 -0.08444714645308338 -1.1271759910198154 124.43125042065151 0 0 0
280 2 -0.1216144906389975 -1.95659965649471 -0.24890592502724562 123.47083525657541 0 0 0
303 2 -0.1248563798270877 0.7864304433022515 0.9953730990664567 129.5170821429158 0 0 0
283 3 0.196358602967024 0.7587196044770965 1.3117478147595265 124.40067682807056 0 0 0
284 3 0.1949674687707001 -0.5610327461283879 2.021063771258349 123.48297343880652 0 0 0
297 2 -0.1259693450731079 3.398749602139514 2.1730679273707714 130.203369806331 -1 0 0
282 1 -0.1788039006984294 -0.29375596211555877 1.2564184918953019 124.19341301965657 0 0 0
296 2 -0.1213250197398728 -2.1539973878246106 -2.0563277271704 129.654326339445 0 1 0
299 3 0.2050308859913135 0.3182343132112564 3.1103829860742462 130.17114173148207 0 0 0
317 3 0.1934409000090182 2.2064093221743706 -2.9715304843818244 136.46207254799947 0 0 0
316 1 -0.1868653961031944 2.108064958776561 -1.9851196736690642 136.04410483641973 0 0 0
318 3 0.1930812335187839 3.0519392004470207 -1.4856062057983046 136.17114707196578 0 0 0
304 1 -0.1659361754736239 0.8016617480689421 0.781493142352836 131.93040626112872 0 0 0
305 3 0.2007144849272962 1.6679479936577026 1.408750217320375 131.95167416477398 0 0 0
306 3 0.1869650945620409 0.19817950585923194 1.0403227036266336 132.77250634765204 0 0 0
307 1 0.106272664501212 1.2158517229132388 -0.6452576731358919 132.30288242995468 0 0 0
308 2 -0.1296774190346088 0.059244580930421176 -1.4384009059481035 132.2665498975099 0 0 0
309 2 -0.1240567840962628 2.1062208617651708 -1.1456988150344427 131.35653681446115 0 0 0
310 1 -0.0489960957762205 1.8934914324001655 -0.6853995711072369 133.76504694716482 0 0 0
311 2 -0.1266423081667568 3.280740075936773 -0.17656031184207954 133.75513529902395 0 0 0
312 3 0.1846816318624813 1.3347909212143927 0.02953124131919127 134.3054285569689 0 0 0
313 1 0.1006792381858817 1.8551991812793212 -2.0616068238001732 134.51901591950548 0 0 0
314 2 -0.1333665893403373 0.6373220414142522 -2.7043515261355133 134.27491029669352 0 0 0
315 2 -0.1297493487288208 2.856164730505764 -2.88643906849293 134.01050389034395 0 0 0
319 1 0.08181698587268497 0.9290778799742516 -1.254004925837473 136.74302169712172 0 0 0
320 2 -0.1328729718153433 0.7671845392193819 -0.007948838661001378 136.1408804984023 0 0 0
300 3 0.2067441420979277 -0.726824283734212 3.1067134839372295 131.54693317696606 0 0 0
321 2 -0.1300438778798585 -0.23431746847885515 -1.990452843398162 136.51493952489653 0 0 0
298 1 -0.1678598063132085 -0.5408706712453495 2.644451769575951 130.59662323397498 0 0 0
301 1 0.1011471170552888 -0.022270635766975744 1.1729428319623145 130.63969284442703 0 0 0
302 2 -0.1223697576657722 -1.095858100539744 0.30299404977660815 130.49653852522903 0 0 0
335 3 0.1959360876429463 -0.5657900223427137 -0.1368968944385225 143.2538751510275 0 0 0
336 3 0.1873881836010778 0.984409003767583 0.5252016433020992 143.39018729310595 0 0 0
334 1 -0.1751283663793402 -0.011388253036401341 0.7595066585386436 143.09013593139645 0 0 0
322 1 -0.173853294827798 1.110283878471276 -1.087025842683642 138.30058582852791 0 0 0
323 3 0.1933486726473 0.709118192930116 -1.9746039202569134 138.7357386931627 0 0 0
324 3 0.1921350143207305 2.167025428783065 -1.11338256566455 138.4984273075102 0 0 0
325 1 0.1046210293282308 0.35084502077006086 -0.02266487744268053 139.09751770755963 0 0 0
326 2 -0.1272669222677432 0.7516993379631773 1.2533968919013474 138.67156799818906 0 0 0
327 2 -0.1267205496536039 -1.0053588333939647 -0.1511685641411873 138.7778213453209 0 0 0
328 1 -0.06640209223708118 0.5335069429647135 -0.15478360616603215 140.6941459171788 0 0 0
329 3 0.1874998897291377 -0.07922494537218139 -0.9614424033159019 141.05126325420753 0 0 0
330 2 -0.1239512815808047 1.9287088017741763 -0.44594442397567846 141.0148562590353 0 0 0
331 1 0.1056234312199859 -0.00487220138378941 1.0346538480745973 141.56885312211756 0 0 0