LAMMPS data file via write_data, version 2 Aug 2023, timestep = 4120, units = real

568 atoms
3 atom types

-2.5750429634451275 3.414042963445128 xlo xhi
-2.985823274048826 2.985823274048826 ylo yhi
17.398031476913488 229.293570523084 zlo zhi
0.050990171695150084 0.009016215496117325 -0.015152179879987054 xy xz yz

Masses

1 12.0107
2 18.998404
3 1.00794

Atoms # charge

19 2 -0.1354730903964973 0.5819605775585703 -1.7757052115523926 22.18247295599031 0 0 0
18 2 -0.1340835451325411 0.016537818435914176 2.0589589675862614 21.91151540498668 0 -1 0
16 3 0.1878839427684732 -2.04511673002043 2.744405125536555 23.32120300754012 0 -1 0
11 1 0.08753087396544407 -2.2024995598069204 -1.7295267458881949 21.756169083679456 0 0 0
15 3 0.1934302051086929 -1.4883920951034812 -1.6728368999866023 23.823372418199487 0 0 0
14 1 -0.1623936371812151 -1.4957123611515923 -2.3924711269813335 23.032313122070256 0 0 0
7 1 0.05452025578709337 -0.8794564592196328 -2.082440403509253 19.67346924050173 0 0 0
8 2 -0.1335599199992667 -1.4354067600719453 2.7052753158481684 19.451786079953177 0 -1 0
9 1 -0.07388440429694654 -1.2747817062034166 -1.2588355620871272 20.664181284743936 0 0 0
10 3 0.1939175698905318 -0.8428170458437636 -0.29107035423378447 20.678050210006134 0 0 0
13 2 -0.1356986493599787 2.905060588625896 -2.6822255556116827 21.228294986142146 -1 0 0
12 2 -0.1343242014683178 3.015599200549969 -0.6437676896324929 22.197544891207293 -1 0 0
17 1 0.0923331644794817 -0.047396656023173556 -2.835793881374791 22.808591280654674 0 0 0
4 1 -0.1886191536062038 0.35401503172223636 -1.682064723603217 18.895041883185165 0 0 0
3 2 -0.1337235807139974 0.6063542307529723 0.6971908129337976 18.519505391590055 0 0 0
6 3 0.1963616815243738 1.139904748965003 -1.4625422395815655 19.617612171831663 0 0 0
1 1 0.0758714620520077 0.3269441954208072 -0.496038369572108 17.84152789064653 0 0 0
5 3 0.1957618362553357 0.6372946160386248 -2.556118634449805 18.325474858154234 0 0 0
21 3 0.1931082681227286 1.486134768338529 1.8979182703599538 23.869777448758928 0 -1 0
30 2 -0.1318931032115786 -0.7414871706866972 2.295207701231573 28.020652839634984 0 -1 0
32 1 -0.1776208168341599 1.1999409208637242 1.3319694543914053 29.05382609990385 0 -1 0
33 3 0.1948867598761821 0.681026515248186 0.7526519375799223 29.786772796758648 0 -1 0
31 2 -0.129197173563016 -0.2023262684856153 0.15192729787384573 27.54885182721829 0 -1 0
34 3 0.2032868350568242 2.1186412329756235 0.8362899059850597 28.802442082089872 0 -1 0
39 3 0.2028296004609441 -0.47862475297486773 -2.3870493846128413 30.01217697061481 0 0 0
23 1 0.0830212115643402 0.0738084494268283 2.407386062672537 25.35927088243524 0 -1 0
24 2 -0.1332459321347457 -0.6785417420681574 -2.4288577227707853 25.80785400920548 0 0 0
25 2 -0.1325524755174095 -0.8659048914181302 1.4175982885256078 25.055406332999993 0 -1 0
26 1 -0.05517879437493496 1.0736962434662356 1.9001899730291614 26.48617778366168 0 -1 0
27 2 -0.1303162919166737 1.9898190070494741 0.8428010207348504 25.96277579355518 0 -1 0
28 3 0.1923801414827437 1.696564258245171 2.720548871938618 26.761063248968895 0 -1 0
29 1 0.09847044049520776 0.32747741244085216 1.4264082765446986 27.766860596178816 0 -1 0
35 1 0.09004522159468553 1.4990644014524874 2.6425981632895104 29.804747488363383 0 -1 0
37 2 -0.1308910526699165 1.7691587405154388 -2.345568296445028 28.87653324952801 0 0 0
36 2 -0.1281461917882959 2.6167086668141013 2.427175878790134 30.60730347606782 0 -1 0
22 3 0.1836887234341867 1.484202096045807 -2.4237978763832233 24.31133955013233 0 0 0
20 1 -0.1782219938273439 0.8600745104091505 2.7456465423382133 24.09277968788553 0 -1 0
49 2 -0.1312821379779411 -0.585617114050053 -1.8358753926088807 34.86637850659052 0 0 0
50 1 -0.1817784853240599 1.6988425651911059 -1.9327939323785406 35.58634157288513 0 0 0
40 3 0.1847125446143204 -0.2749994017023032 2.2935893492107464 31.10527751364814 0 -1 0
55 2 -0.1311734646992947 0.362754219103707 -0.38257219811063203 36.88087123380265 0 0 0
52 3 0.2030731505677051 2.689096739270496 -1.6197247732622313 35.288893572511 0 0 0
51 3 0.1785306134423849 1.6978263309431134 -2.986917445509003 35.76649869803537 0 0 0
41 1 0.1021234346084356 0.4957984404307214 -1.859085431397947 31.809041697680186 0 0 0
53 1 0.09730039968851681 1.4061635678664524 -1.301463570328441 36.98255320868158 0 0 0
43 2 -0.1277844327952662 -0.6994446840618316 -1.166716218918144 32.05895628061812 0 0 0
44 1 -0.04936673996613548 1.0121868494609356 -2.54170396666894 33.15658706303852 0 0 0
45 3 0.1885182243856951 0.5387059110011307 2.504036219578472 33.27747927612843 0 -1 0
46 2 -0.1263798847338115 2.4184806533964447 -2.8803163917384955 33.0800618543532 0 0 0
47 1 0.1007221626719929 0.7328424944746841 -1.6329756995735 34.4307156745345 0 0 0
48 2 -0.1288719509406703 0.858276784090545 -0.2762425362576555 34.09956480364896 0 0 0
42 2 -0.1288903914097798 1.4297895548946884 -0.9136962945204519 31.349711077409054 0 0 0
38 1 -0.1753536735931984 0.21037559849571563 -2.8506738176005917 30.685935628933024 0 0 0
69 3 0.2033548130510466 0.8990946663375876 -1.717450422274334 42.849001339066376 0 0 0
67 2 -0.1254081560149801 2.3798143819954016 2.818262617055045 41.81800970589597 0 -1 0
68 1 -0.1563249827438152 0.17768245513020986 -2.4612229855203043 42.616813114764966 0 0 0
56 1 -0.1920317851863663 1.0367736224960513 -2.433937218994682 37.99841660176888 0 0 0
57 3 0.1885509369912263 0.14182626298972334 -2.928699051483669 37.68579297453022 0 0 0
58 3 0.1789632231548895 1.8747448684891572 2.8022367427167296 37.97521764469275 0 -1 0
59 1 0.1069935231579412 0.8079192431180102 -1.9571742822964884 39.43535368145387 0 0 0
60 2 -0.1247598385584658 1.9550381308916047 -1.3223906812290778 39.92711727755163 0 0 0
61 2 -0.1255441899063898 -0.2487258598030495 -1.0298196616247746 39.4831251102834 0 0 0
62 1 -0.06346375191549393 0.5107333796849245 2.67945147735594 40.22981510328776 0 -1 0
63 2 -0.1224557068090654 -0.9112860443045885 2.356503908236414 40.107832837043475 0 -1 0
64 3 0.1945188797613084 0.9930829995528798 1.8724637908334305 39.72615311131962 0 -1 0
65 1 0.1084024536492308 1.004653232495436 2.5300801165051503 41.72306492755115 0 -1 0
66 2 -0.1246671811969907 0.8267149588088962 1.1991785409887852 42.158178746034864 0 -1 0
70 3 0.2012081138384142 -0.5643394725660302 -1.962303938055807 42.027630982456614 0 0 0
72 2 -0.1234655199222655 -1.4004370000952615 2.0919545630104714 43.721814144755115 0 -1 0
54 2 -0.129481020842299 2.5416572594376032 -0.6297645878284843 37.43546417190298 0 0 0
88 3 0.1955005602881166 -0.45089481454705327 -0.837362922272213 49.7295004917242 0 0 0
78 2 -0.125881840206097 0.8523194316612592 -0.37579077189009213 44.678089848329094 0 0 0
85 2 -0.1277570336048278 -1.6671394716042052 -2.722110443149617 47.35616794631251 0 0 0
74 1 -0.18085680971096 -1.1858754735954193 -1.6621195277764664 44.65280562843657 0 0 0
87 3 0.1789532473267861 0.543531160907238 -2.097059056230613 49.162222432961016 0 0 0
76 3 0.2115239973592662 -1.9031102325335336 -2.0519889482463043 45.33169085912409 0 0 0
77 1 0.1182249165960457 -0.2632735683816634 -0.7038394612184433 45.45417908988155 0 0 0
86 1 -0.1721747658580834 -0.4771158877972903 -1.7956110004863024 49.23795352973981 0 0 0
79 2 -0.1243527140797928 -0.9410315827413629 0.4856056585851043 45.715020726496434 0 0 0
80 1 -0.04345243778175509 0.23013406269059944 -1.2965594324406264 46.82316302632398 0 0 0
81 3 0.2007169448482377 0.6950202637993899 -2.22535343181862 46.57592080891382 0 0 0
82 2 -0.1250578496133968 1.2174024062490485 -0.3685530776667969 47.47862377999097 0 0 0
83 1 0.08590240503714501 -0.9763105224749149 -1.588926742769257 47.79121892168482 0 0 0
84 2 -0.1286545927870679 -1.8658050408539817 -0.5187985376890709 47.77676321732074 0 0 0
90 2 -0.1314221689802522 -1.3507109697136859 1.9370649481344024 49.560598220766096 0 -1 0
89 1 0.0987500149517376 -1.236720803023792 -2.7881231823068386 50.18169588775345 0 0 0
93 3 0.1849418416519733 2.9067502184248926 -1.6808183612291645 49.87452319754894 -1 0 0
73 2 -0.1272600797427189 0.5164500224466235 2.572347389304822 44.829617573734 0 -1 0
71 1 0.1063810233658507 -0.4972100950526239 -2.880757704780224 43.96688295104175 0 0 0
75 3 0.2005180403726706 -1.7258185543057456 -1.106379517637096 43.91819730983433 0 0 0
107 1 0.104331876023645 3.434915627154044 0.6464705115500906 55.79871948609352 -1 0 0
105 3 0.1985203236065015 -1.9257609109152574 -0.6091034604527921 54.33275561618663 0 0 0
101 1 0.09609600491294845 1.9789698639017828 -0.41078377737607497 53.81386283496648 -1 0 0
108 2 -0.1245619686209767 -1.2028157583142802 0.867544080477066 56.03648161084564 0 0 0
111 3 0.1975221712237484 1.8658439331594159 -0.558616556609143 56.6768475818198 -1 0 0
112 3 0.1990068066037763 -2.557880491005263 -1.2814270770575102 56.761230655912335 0 0 0
95 1 0.07021125770630138 3.421499180641838 -1.530359016549483 52.00961260179292 -1 0 0
96 2 -0.1339711070476771 -2.173561768644434 -2.4395568698270034 53.0112554115468 0 0 0
97 2 -0.1377151857147725 -1.6266279835001574 -0.4920497824062462 51.96259620770724 0 0 0
98 1 -0.06133796955830524 2.024484848448869 -0.9293946111447928 52.33575238158123 -1 0 0
99 2 -0.1347010998045128 1.6694826850267348 0.15174274701120716 51.35087660390251 -1 0 0
100 3 0.1878602923644266 1.2572772926583404 -1.6651078641937347 52.19645185422702 -1 0 0
109 2 -0.12438004594164 2.780152470107374 1.8676472774244761 55.944658056130706 -1 0 0
102 2 -0.1287412375367362 0.9773766039777727 0.5626838975936956 53.92349874349314 -1 0 0
104 1 -0.1564878009323201 3.3261968710183987 0.1722556129188244 54.3204089173055 -1 0 0
103 2 -0.1303666059108598 1.6190623621195823 -1.4653336254386882 54.64470577279427 -1 0 0
106 3 0.2089006842530008 -2.3116803940753132 0.9344496603828292 53.636089172105436 0 0 0
91 2 -0.1366730173953805 -0.38101567227846367 2.9681501991894503 51.29239687313151 0 -1 0
110 1 -0.1670339738137643 2.8975923747382057 -0.3569236807627387 56.87860070954848 -1 0 0
92 1 -0.1734475584675767 3.3576539775404313 -2.2691235907062284 50.64751688220075 -1 0 0
94 3 0.1869714382194448 2.7386763935488143 2.886185243283446 50.79022977994862 -1 -1 0
125 1 0.1073793453828716 2.4065435923845446 0.28447396020392146 63.086039490278296 -1 0 0
124 3 0.2080625795907062 3.3618945521660204 0.7350110143796229 61.157297981915406 -1 0 0
121 2 -0.122672854011637 1.2332866090547316 -1.7741698375394996 61.268088382307994 -1 0 0
123 3 0.1932730515098059 -2.295265157605 -0.820826387431635 61.77460455028398 0 0 0
122 1 -0.1719042899457512 2.9137264741048194 -0.10142201142099028 61.65939010474441 -1 0 0
119 1 0.1124452706001974 1.8194851417093187 -0.631078519306433 60.704473362569445 -1 0 0
113 1 0.1011662830221177 3.0293330986153495 0.06698849789425099 58.36189413412322 -1 0 0
114 2 -0.1230188529669293 -1.6015861031758163 0.21905534150677175 58.67689166725722 0 0 0
115 2 -0.1242159928423764 2.403362501785191 1.2947268523797222 58.56370651454478 -1 0 0
116 1 -0.05948862757089031 2.361239928737582 -1.0112942474558166 59.28828061885075 -1 0 0
117 3 0.1986270998753456 1.5030994108318532 -1.3733598160046614 58.76379870147379 -1 0 0
118 2 -0.1217324944085224 3.180701173693557 -2.2656630034857423 59.35653975975805 -1 0 0
120 2 -0.1235430376064268 0.8160118697874825 0.33887975910930646 60.58128025720469 -1 0 0
126 2 -0.1252956840494493 2.4447777550836682 1.665781719389078 63.21207874527779 -1 0 0
127 2 -0.1265393805835564 1.0699912504219582 -0.11627105562303308 63.25917673330156 -1 0 0
140 1 -0.1725015923542415 1.8266600983197896 -0.18838228385400857 68.58153333802247 -1 0 0
139 2 -0.1320404636503569 -1.8805381228962412 -0.18763937444385848 69.19753263059144 0 0 0
141 3 0.1947987481501391 1.8774402721727221 0.8834309109096536 68.55606285970114 -1 0 0
128 1 -0.1750885175201052 3.2670875922592573 -0.33832799350704956 64.23083357438759 -1 0 0
137 1 0.07307383350795818 3.2362689939233165 -0.6674083940241693 68.21983759701553 -1 0 0
130 3 0.1947029827896536 -1.7721490966679703 0.14761951595869505 64.2654277586737 0 0 0
131 1 0.08441837521624501 2.621917886336775 -0.2497390393237513 65.62321004657869 -1 0 0
132 2 -0.1288420697511848 1.7819832183130662 0.8827572300518614 65.68816102012528 -1 0 0
133 2 -0.1279515187969915 1.8146337511381714 -1.375651994553806 65.79466417672487 -1 0 0
134 1 -0.05918686863689649 -2.281964395611772 -0.16279866355007178 66.77843232197594 0 0 0
135 2 -0.1274467845889158 -1.0263042696789497 -0.7856758133999167 66.3838205070531 0 0 0
136 3 0.19258635351092 -2.025676450145337 0.8646419797485221 66.85242665037008 0 0 0
142 3 0.2090461808568576 1.1829942438857488 -0.5361348986475463 67.79574334937347 -1 0 0
129 3 0.196453970847063 -2.5468529459406235 -1.3750377529272082 64.02354962751878 0 0 0
138 2 -0.1284637242209515 3.2865199738691637 -2.070363089625982 68.26680686094326 -1 0 0
143 1 0.1008774744662 1.2333516961203013 -0.6200717507497644 69.96442961256756 -1 0 0
145 2 -0.1276223411670482 0.4974439062647398 -1.7896169208595334 69.78423492894365 -1 0 0
155 2 -0.1257523331514304 1.617391180805067 2.912378339595012 74.59745840612554 -1 -1 0
154 2 -0.1233552674561043 0.1665545937515911 -1.293229261541254 74.75015022927946 -1 0 0
159 1 0.08661875076048678 2.134844070283459 0.1426552943560968 76.69620002698429 -1 0 0
146 1 -0.181170585001097 2.356550253415936 -0.8517587845174721 71.05132341559096 -1 0 0
160 2 -0.129786553437033 2.8195262809561625 0.9672960644647342 75.8048767199507 -1 0 0
156 1 -0.18174585210925 2.157569831361655 -1.2995968550967054 76.13252511002466 -1 0 0
149 1 0.09860869973353335 1.8263294853323777 -1.5686514845598907 72.27493000615365 -1 0 0
150 2 -0.120413530106458 1.0849930245264727 -2.6903444963858334 72.14152259537559 -1 0 0
151 1 -0.09162202433721545 2.138805077952712 -1.0801088549125646 73.47767952967146 -1 0 0
152 3 0.1936928563695506 2.803629439148002 -0.25940609690949445 73.54207179962489 -1 0 0
153 1 0.1093922400412921 1.5248272376708063 -1.6589572294668955 74.70872469955563 -1 0 0
158 3 0.1856383222623524 3.1493007125694343 -1.697989896533934 76.1224851077142 -1 0 0
148 3 0.1905960558433736 2.7798212616229976 0.09956643541693522 71.30583941943794 -1 0 0
147 3 0.2021800162738037 3.1201937753387976 -1.4486615347546996 70.60517397187839 -1 0 0
144 2 -0.1251773184902814 0.3570011299218958 0.3545994851391039 70.44912819556771 -1 0 0
161 2 -0.1285718918558151 0.8205782220966245 0.6075147880047131 76.77381819769903 -1 0 0
157 3 0.1960643267078561 1.632101353779793 -1.8788160809055763 76.8474235337024 -1 0 0
172 2 -0.1253450155924371 0.8592491511928175 0.3862267141073099 82.15982240657216 -1 0 0
174 1 -0.1775242910321239 2.685223562227003 -0.7430119674314772 83.23071343105919 -1 0 0
162 1 -0.1875047498182451 2.75363531860677 0.3025533385801329 78.12796568295374 -1 0 0
175 3 0.1940154181222381 -2.5140285362494432 -1.4363485401884468 83.04288227146105 0 0 0
163 3 0.1878227393134317 -2.3624592698953917 -0.31023737644470195 78.16962424053864 0 0 0
164 3 0.1905555568245104 3.0775767070345483 1.305941536446917 78.2446108595164 -1 0 0
165 1 0.1048276405206231 1.8340906313144179 0.06113874433712008 79.35228216306737 -1 0 0
166 2 -0.1269686576937865 0.9662834386327934 1.1486741046830637 79.51464855744706 -1 0 0
167 2 -0.1288348243888101 1.0434733525332884 -1.064606915645029 79.11918035196189 -1 0 0
168 1 -0.06805275980370926 2.6800007709426317 -0.1301844827651264 80.66418709130616 -1 0 0
169 2 -0.1254777329416509 -2.1296632272244 -1.0140152440539143 80.41152422709234 0 0 0
170 3 0.1899704585055243 3.21063351308938 0.7647975938992149 80.90916288357843 -1 0 0
171 1 0.1174801100913493 1.857228861788721 -0.567369284776865 81.9265551835185 -1 0 0
173 2 -0.1241912591725005 1.2116254635657655 -1.7732142672897055 81.64407603578273 -1 0 0
176 3 0.195288866630206 3.165904942417615 0.17743196902049307 83.4649430890384 -1 0 0
178 2 -0.1243802879219231 0.9760733317001824 -0.22107010523878712 84.85362310548368 -1 0 0
191 2 -0.1260743146780086 -2.1174591044328337 -2.068961062811545 88.92819807467545 0 0 0
181 3 0.2125156284154605 2.1710327628450297 -2.1859550959117056 86.36702866431 -1 0 0
179 2 -0.1246334661577946 1.1540474695541771 -2.349791038126128 84.1576124088602 -1 0 0
180 1 -0.1661959246531382 2.7777479162559167 -1.5603356052590747 85.73458529369405 -1 0 0
177 1 0.104183298175786 1.8913029535817354 -1.212073170977184 84.49023478742284 -1 0 0
183 1 0.1029145403798103 3.3847365322576075 -0.4367886237974714 86.59452767345202 -1 0 0
184 2 -0.1223345151361771 -1.2653436850030557 -0.7635026372506828 86.86850267680626 0 0 0
185 2 -0.1257032754407418 3.399108473588526 0.7717551168888739 85.86124409659918 -1 0 0
186 1 -0.04504220213082927 2.594094764392907 -0.2045338285114453 87.94201330070707 -1 0 0
187 3 0.1945794006140693 3.014563560927661 0.6633816725065591 88.41755381841777 -1 0 0
188 2 -0.1202046190099561 1.218613635797972 0.19972992573696935 87.65714564958357 -1 0 0
189 1 0.09760643643643092 2.6470646119721377 -1.3989102548907346 89.00123404171735 -1 0 0
190 2 -0.1245518581569789 1.639946981816156 -2.3460780097879774 88.74739867889089 -1 0 0
182 3 0.1959188396353024 -2.3957714826311256 -2.1643713475597646 85.38932732775481 0 0 0
200 3 0.202938911475681 2.223813876445432 -2.6224516672799076 93.38769421005102 -1 0 0
209 2 -0.1252134814122321 3.2792819518830627 0.9522484496777994 96.20269168983825 -1 0 0
196 2 -0.1352265009868113 2.7066074656413988 2.796831784008213 91.10457820273697 -1 -1 0
198 1 -0.1763787972412288 2.1506907964571336 -1.6794005541557555 92.88953781919709 -1 0 0
203 2 -0.1278413585339084 1.4694920669325557 -0.6615597444463184 94.91166245081872 -1 0 0
197 2 -0.1353895513723838 -1.7194791147407669 -1.7450346331102136 91.75850356059411 0 0 0
201 1 0.07442115579697633 2.5027286503793484 -0.6355423011062973 93.97521700284125 -1 0 0
202 2 -0.1335936505110524 2.4932661732072243 0.6334689807520126 93.39002427880449 -1 0 0
199 3 0.1833482258833861 1.117245850295784 -1.535428271080119 92.64057910463065 -1 0 0
204 1 -0.03888517232142211 -2.1091977214252413 -0.8543971757174686 94.72598033660896 0 0 0
205 2 -0.1255191015038066 -1.670313064559315 -2.279783200886072 94.69105396308278 0 0 0
206 3 0.1977761395691982 -1.3644151285417787 -0.338010128096363 94.15492107132462 0 0 0
192 1 -0.1813044729212901 2.4841847959368084 -0.8432162356878461 90.41554961369961 -1 0 0
195 1 0.07755134550753415 2.8998220206132923 -1.8623904906578042 91.54203660420131 -1 0 0
207 1 0.1069515388374269 -2.0751194609464774 -0.29009740594782185 96.187088643851 0 0 0
208 2 -0.12586823529894 -0.7394133035315371 -0.06369999199417453 96.55009958268516 0 0 0
194 3 0.187617068360714 1.4708770168150385 -0.5302618594385762 90.54834382233813 -1 0 0
193 3 0.1837623287638649 3.1053035611517585 0.03138747709062395 90.49829621833628 -1 0 0
212 3 0.2137972453005527 2.577359569176848 -1.8589064953794998 96.77491470213067 -1 0 0
211 3 0.1953446532035969 2.6063272075191732 -0.571172931147323 97.86024063104476 -1 0 0
215 2 -0.1227086582393252 -0.7008442031048383 -2.455288619219277 97.49493643895708 0 0 0
214 2 -0.127727870804478 -2.4068978644785464 2.9478053815508884 98.79428610153948 0 -1 0
216 1 -0.1679441810068131 -1.2468516355929775 -1.032309299780319 99.38510486475116 0 0 0
217 3 0.1960925351595849 -1.135237009076611 -0.03398334792649793 99.00537699506802 0 0 0
218 3 0.1954168047743233 -2.0214956073850487 -0.9747721867996408 100.12351485157491 0 0 0
219 1 0.1018036180710403 0.047584506820722794 -1.4792739331999423 100.08678416034536 0 0 0
220 2 -0.1303979365992176 -0.051152161387840955 -2.8455805997469 100.40265896732313 0 0 0
221 2 -0.1334536516081437 1.1109768091912278 -1.3529463208646377 99.1848244124683 0 0 0
222 1 -0.06526481906606327 0.3839852103236341 -0.6231080281651811 101.39893309835435 0 0 0
223 3 0.1862023386773938 0.908691878546398 0.2229233714918104 101.0215858355762 0 0 0
224 2 -0.1296348168616997 -0.8171510147913366 -0.020401559418873116 101.97523876224233 0 0 0
225 1 0.1022905474590673 1.2833196700096567 -1.2760697693376186 102.52943489215144 0 0 0
213 1 0.1181169498716409 -1.7799035972227744 -1.941692847794713 98.22894674397494 0 0 0
227 2 -0.1324085945254802 2.476787093252788 -1.7248470644687037 101.9566084467059 0 0 0
210 1 -0.1592331919089074 3.2439386036205318 -1.1828958930428197 97.26464651643677 -1 0 0
226 2 -0.1297106064627697 0.6275443398844693 -2.407708361657152 103.0336128147642 0 0 0
229 3 0.183128394839284 2.0131007821714575 0.563061751422393 103.37340954939232 0 0 0
244 2 -0.1248974247782737 -1.512493575844979 0.37051495965879866 109.71889319759414 1 0 0
231 1 0.1008378244277446 2.547318348921825 -0.8726664250444585 104.91039178040053 0 0 0
235 3 0.2017079359288568 -1.9780633561471554 0.3382994525134242 105.93472475222579 1 0 0
234 1 -0.1724198920953143 2.941714079565948 0.3003084850206421 105.86431711964045 0 0 0
230 3 0.1943171262185243 0.726581174376574 -0.15219687908281632 104.2236361714497 0 0 0
236 3 0.1848391000772005 2.5909065952977 1.2458599849592407 105.48601391115916 0 0 0
237 1 0.06990177984542656 2.4299918524870034 0.203512817192526 107.3150807309102 0 0 0
238 2 -0.129386173177285 1.025817051978612 0.19372875384800503 107.31943337624367 0 0 0
239 2 -0.1281448847139832 2.8680871276479807 -0.9914501154159951 107.88977236661316 0 0 0
240 1 -0.05048399907641483 2.9377536439300953 1.425928760147527 108.17007793781511 0 0 0
241 2 -0.1243999518228365 -1.8982073674907354 2.139656496350643 107.53574747180446 1 0 0
242 3 0.199582527993123 2.1085062967359156 2.090281833261704 108.17019180091847 0 0 0
228 1 -0.1779040798805196 1.639785528573745 -0.375261159742196 103.72816985019011 0 0 0
243 1 0.09882306294298925 3.251770554551397 1.034637997136838 109.65509376620751 0 0 0
232 2 -0.128093331270601 1.860359925846979 -1.8458657234434321 105.63910630486338 0 0 0
233 2 -0.1291337732092836 -2.284322840457135 -1.4736386325714887 104.41606502251096 1 0 0
247 3 0.2061780005188914 1.4363047788925525 -0.10058332553192484 109.49869018894155 0 0 0
249 1 0.1125011017082637 1.44083219358783 0.6972036901322665 111.48625557772945 0 0 0
263 2 -0.1189520023493729 1.0409943184099189 -2.1221998223192116 115.79850353488372 0 1 0
262 2 -0.1167370932296172 3.289913281087992 -1.8034039802433064 115.81866035678333 0 1 0
252 1 -0.1622561238073431 2.37475635673307 0.944311270097216 112.72521287358222 0 0 0
253 3 0.2069157563081389 2.5907756550085463 -0.0007849331609666166 113.177600936539 0 0 0
254 3 0.2112698915038888 3.3183500348148827 1.3284630900512493 112.40410363845429 0 0 0
255 1 0.1250574123890787 1.72380714075724 1.8611298261555653 113.77479432628006 0 0 0
256 2 -0.1196539187337972 1.4961671187681724 -2.835853116327194 113.22296972342441 0 1 0
257 2 -0.1182583543148238 0.45376250971105225 1.3564438001983419 114.0402207641078 0 0 0
258 1 -0.03226112047515933 2.5179579263675174 1.9818949665416055 115.15908953164168 0 0 0
259 3 0.2010033668811344 2.246614145525738 1.150999615004018 115.76686652964858 0 0 0
260 2 -0.1158540618235821 -2.0266604325916373 1.6504781660205277 115.00758427833738 1 0 0
261 1 0.1201932869892038 2.270935752125314 -2.742932954360115 116.05798886706181 0 1 0
250 2 -0.124468208554723 0.8687187166412738 1.8920112898208963 111.07246448452167 0 0 0
251 2 -0.1213043499707694 0.40039848098256403 -0.1589298857720567 111.86574862281896 0 0 0
248 3 0.2057954053511655 2.6060122274922652 -0.8221689748791703 110.54023892473684 0 0 0
246 1 -0.1760118229514951 2.1635784720705655 0.10442762697749997 110.25690274087754 0 0 0
245 2 -0.1257067094810065 3.375513167722566 2.217456984150637 110.40857483257264 0 0 0
280 2 -0.1271896328680653 3.246031507083479 -0.44600264965563285 122.65794485919463 0 0 0
278 3 0.2038693664675978 0.8937126265784885 0.23113506707829323 121.64068040994891 0 0 0
267 1 0.0926565795775065 -2.4143638925944324 2.1896767988265085 118.25693250067972 1 0 0
270 1 -0.1698807650148522 3.309942621796401 1.9934966151762623 119.80132526122095 0 0 0
271 3 0.2044201302706257 -1.7678298292262908 1.6816649219177524 120.26326680354698 1 0 0
272 3 0.1958179136601882 3.0325884223372674 2.926516646252831 120.23536987690645 0 0 0
273 1 0.0697478492753606 2.254706673298142 0.9360596665003778 120.18713564536884 0 0 0
274 2 -0.1338260050458913 1.1940714758960391 1.0105417327583464 119.28829579264256 0 0 0
275 2 -0.1325883940590023 2.8440306585262793 -0.3241727897935287 120.01179654666109 0 0 0
277 2 -0.1275000311206509 0.8056318077937217 2.243134822343581 121.84278878275904 0 0 0
268 2 -0.1266443761092562 -2.102330425750085 0.9565382719594258 117.6855968450847 1 0 0
265 3 0.1982071114967963 2.0118283706654805 -2.308140565560864 118.10984960661483 0 1 0
281 2 -0.1285995288949468 -2.3595551375514874 1.7661437489576226 122.73318415066059 1 0 0
266 3 0.1958347825683586 1.5590964610955171 2.067040685026739 117.66946142566704 0 0 0
276 1 -0.04370264654967825 1.6306337431441436 1.0091374143969691 121.6337306385355 0 0 0
269 2 -0.1265257425237517 -1.3757444533775807 -2.929992664735598 118.05155058094333 1 1 0
264 1 -0.1759838915936778 2.333845535746811 2.7929499430387628 117.55444922032613 0 0 0
279 1 0.1003815827970395 2.6296665471782803 0.7977667342441168 122.8065898692846 0 0 0
285 1 0.08269437389678874 0.8449526966353473 -0.09322911268919443 124.59366629198013 0 0 0
283 3 0.1878421957580025 2.7459947026942655 0.7962925603933795 124.93842275416897 0 0 0
295 1 0.0929934052786105 2.72682418212055 -1.176728483477973 128.82981051039792 0 0 0
288 1 -0.2017551263724533 0.3901234835180629 0.15563553348651293 126.111732320957 0 0 0
290 3 0.1798505127729975 -0.35168948093433894 -0.5447419584512896 126.39563266004099 0 0 0
289 3 0.1746606942164561 -0.049694036554726484 1.1358249406024843 126.2003767006401 0 0 0
291 1 0.03897409094736453 1.579048669772035 0.04035716369452702 127.02486975628601 0 0 0
292 2 -0.1421889402271796 2.548130097624974 0.9758641091305815 127.0046444072352 0 0 0
293 1 -0.1136236897113959 1.6892457210508698 -1.0683328186418235 127.78229521006087 0 0 0
294 3 0.1660643027257796 1.033692322230214 -1.8864270153272795 127.66720558362529 0 0 0
296 2 -0.14003543128178 -2.01602918252042 -1.4302915152203663 128.22367367431514 1 0 0
287 2 -0.132168162547189 1.288019733860132 -1.4073850578840736 124.44739046398703 0 0 0
286 2 -0.1297401654264202 -0.23973498194623533 0.0809998203753195 123.7486154063302 0 0 0
282 1 -0.1649204942401938 1.968365107290944 0.8948695618953555 124.21949076665983 0 0 0
300 3 0.1861632858780726 2.3571075985245025 2.6951221903282496 129.33620670212264 0 -1 0
284 3 0.1892555008570632 1.5983302346279253 1.8920164328387292 124.36547701761585 0 0 0
297 2 -0.1313287723931876 2.8117841196443627 0.03806240150928053 129.53614204950784 0 0 0
298 1 -0.195221924814061 2.375838956861536 -2.351957537588656 129.86566492051764 0 0 0
299 3 0.1865100813105381 1.4278054786726968 -2.1599429472101717 130.31936935989495 0 0 0
301 1 0.1194959201702656 -2.56023593436168 -2.4701355278785497 130.97628673372105 1 0 0
305 3 0.2089424341618977 2.3895215043198026 -1.7347034914980741 132.69794156794964 0 0 0
304 1 -0.1640931877494119 2.738090569204401 -2.6883650699425705 132.3801788463637 0 0 0
303 2 -0.1232827453128076 -1.7771981714958769 -1.3082594328063974 131.02661560298017 1 0 0
306 3 0.2008858797709419 1.9242400963453608 2.6609752630176597 132.2880989679419 0 -1 0
307 1 0.1188357058323221 -2.2813212199763564 2.7340678427364518 133.49438698738714 1 -1 0
308 2 -0.1196218658159856 -1.7109972052517233 1.5369272527504103 133.0612595624732 1 -1 0
309 2 -0.1226660899247755 -1.2888100276013024 -2.3333354631939294 133.68459055576602 1 0 0
310 1 -0.04867356155790092 3.0288909589104214 2.4767477209674302 134.87822229382772 0 -1 0
311 2 -0.121921327703665 2.0971007707999445 1.3144114852995283 134.84279855484203 0 -1 0
312 3 0.2075027302397337 -2.1836276832287176 2.131837490088267 135.52719117307794 1 -1 0
313 1 0.09525839003389874 2.313519937643067 -2.2040738161596134 135.48347766716023 0 0 0
302 2 -0.125864858970286 -1.6570516542448364 2.4417835414385376 130.67604184784682 1 -1 0
315 2 -0.1243902080261776 1.2723538919159494 -1.7627836724121526 134.64833513449807 0 0 0
314 2 -0.1252108374588551 3.247746663578446 -1.1821562794087328 135.53939347101146 0 0 0
324 3 0.1989896877976849 1.9100502075251318 -1.4568422281746658 139.35999986363515 0 0 0
322 1 -0.1797597688588362 2.3146280934358106 -2.4429287938133517 139.39625451570453 0 0 0
329 3 0.1790252651912969 2.015241758209591 2.78960773926808 141.8164625043387 0 -1 0
319 1 0.09794571121487743 2.9135849638766262 -2.702705448156185 137.98534148758483 0 0 0
323 3 0.1981969899396312 3.0850989219967704 -2.4344301457160573 140.14159476552032 0 0 0
333 2 -0.1298421703435766 1.2876160183789414 0.3399381856576844 142.2073587449122 0 -1 0
325 1 0.1032665911597294 1.2424620821681973 2.558591684638607 139.82501395846913 0 -1 0
326 2 -0.1279081273184599 0.0649600378728783 2.887607334536251 139.13551648138588 0 -1 0
327 2 -0.1272246166639241 1.5712389863846732 1.2407652808850926 139.4722436798735 0 -1 0
328 1 -0.06972154559972259 1.0437810588771925 2.673938849399873 141.37888826587277 0 -1 0
331 1 0.1126154100094439 0.3795436287563825 1.3872547581187122 142.0842109434061 0 -1 0
330 2 -0.1291179662242254 0.23821549443102263 -2.09692117057291 141.7096492205148 0 0 0
320 2 -0.1266238147869626 3.4330067199149883 1.9617686128064875 137.9174010744165 0 -1 0
332 2 -0.127293498245717 -0.7530439998556366 0.9253170761669844 141.376646236537 0 -1 0
321 2 -0.1256636301665926 -1.98459466531946 -1.8444587448251808 137.76930439248042 1 0 0
317 3 0.1992002482178886 1.2034512125413763 -1.6213052336229656 137.24136302531838 0 0 0
316 1 -0.1690927597553476 1.7900257846780572 -2.457250645069093 136.91231299878484 0 0 0
318 3 0.2039914252169195 1.2025455649508032 2.6605778198535344 136.8869189392244 0 -1 0
348 3 0.1917907132638666 -1.7427668802034162 -2.9191512569209923 148.4526732931132 0 0 0
334 1 -0.1870241800194445 -0.0016364608184078477 1.888228775411248 143.4729501150626 0 -1 0