LAMMPS data file. CGCMM style. atom_style charge generated by VMD/TopoTools v1.8 on Sat Sep 30 22:39:27 EDT 2023
 568 atoms
 0 bonds
 0 angles
 0 dihedrals
 0 impropers
 3 atom types
 0 bond types
 0 angle types
 0 dihedral types
 0 improper types
 -3.080500 3.919500  xlo xhi
 -3.500000 3.500000  ylo yhi
 -0.647798 247.339400  zlo zhi

# Pair Coeffs
#
# 1  C
# 2  F
# 3  H

 Masses

 1 12.010700 # C
 2 18.998404 # F
 3 1.007940 # H

 Atoms # charge

1 1 0.000000 0.000000 0.000000 0.000000 # C
2 2 0.000000 -0.749000 1.111000 0.000000 # F
3 2 0.000000 -0.749000 -1.111000 0.000000 # F
4 1 0.000000 0.839000 0.000000 1.292000 # C
5 3 0.000000 1.448000 -0.904000 1.292000 # H
6 3 0.000000 1.448000 0.904000 1.292000 # H
7 1 0.000000 0.000000 0.000000 2.583000 # C
8 2 0.000000 -0.749000 1.111000 2.583000 # F
9 1 0.000000 0.839000 0.000000 3.875000 # C
10 3 0.000000 1.448000 -0.904000 3.875000 # H
11 1 0.000000 0.000000 0.000000 5.166000 # C
12 2 0.000000 -0.749000 1.111000 5.166000 # F
13 2 0.000000 -0.749000 -1.111000 5.166000 # F
14 1 0.000000 0.839000 0.000000 6.458000 # C
15 3 0.000000 1.448000 -0.904000 6.458000 # H
16 3 0.000000 1.448000 0.904000 6.458000 # H
17 1 0.000000 0.000000 0.000000 7.749000 # C
18 2 0.000000 -0.749000 1.111000 7.749000 # F
19 2 0.000000 -0.749000 -1.111000 7.749000 # F
20 1 0.000000 0.839000 0.000000 9.041000 # C
21 3 0.000000 1.448000 -0.904000 9.041000 # H
22 3 0.000000 1.448000 0.904000 9.041000 # H
23 1 0.000000 0.000000 0.000000 10.332000 # C
24 2 0.000000 -0.749000 1.111000 10.332000 # F
25 2 0.000000 -0.749000 -1.111000 10.332000 # F
26 1 0.000000 0.839000 0.000000 11.624000 # C
27 2 0.000000 1.588000 -1.111000 11.624000 # F
28 3 0.000000 1.448000 0.904000 11.624000 # H
29 1 0.000000 0.000000 0.000000 12.916000 # C
30 2 0.000000 -0.749000 1.111000 12.916000 # F
31 2 0.000000 -0.749000 -1.111000 12.916000 # F
32 1 0.000000 0.839000 0.000000 14.207000 # C
33 3 0.000000 1.448000 -0.904000 14.207000 # H
34 3 0.000000 1.448000 0.904000 14.207000 # H
35 1 0.000000 0.000000 0.000000 15.499000 # C
36 2 0.000000 -0.749000 1.111000 15.499000 # F
37 2 0.000000 -0.749000 -1.111000 15.499000 # F
38 1 0.000000 0.839000 0.000000 16.790001 # C
39 3 0.000000 1.448000 -0.904000 16.790001 # H
40 3 0.000000 1.448000 0.904000 16.790001 # H
41 1 0.000000 0.000000 0.000000 18.082001 # C
42 2 0.000000 -0.749000 1.111000 18.082001 # F
43 2 0.000000 -0.749000 -1.111000 18.082001 # F
44 1 0.000000 0.839000 0.000000 19.372999 # C
45 3 0.000000 1.448000 -0.904000 19.372999 # H
46 2 0.000000 1.588000 1.111000 19.372999 # F
47 1 0.000000 0.000000 0.000000 20.665001 # C
48 2 0.000000 -0.749000 1.111000 20.665001 # F
49 2 0.000000 -0.749000 -1.111000 20.665001 # F
50 1 0.000000 0.839000 0.000000 21.955999 # C
51 3 0.000000 1.448000 -0.904000 21.955999 # H
52 3 0.000000 1.448000 0.904000 21.955999 # H
53 1 0.000000 0.000000 0.000000 23.247999 # C
54 2 0.000000 -0.749000 1.111000 23.247999 # F
55 2 0.000000 -0.749000 -1.111000 23.247999 # F
56 1 0.000000 0.839000 0.000000 24.540001 # C
57 3 0.000000 1.448000 -0.904000 24.540001 # H
58 3 0.000000 1.448000 0.904000 24.540001 # H
59 1 0.000000 0.000000 0.000000 25.830999 # C
60 2 0.000000 -0.749000 1.111000 25.830999 # F
61 2 0.000000 -0.749000 -1.111000 25.830999 # F
62 1 0.000000 0.839000 0.000000 27.122999 # C
63 2 0.000000 1.588000 -1.111000 27.122999 # F
64 3 0.000000 1.448000 0.904000 27.122999 # H
65 1 0.000000 0.000000 0.000000 28.414000 # C
66 2 0.000000 -0.749000 1.111000 28.414000 # F
67 2 0.000000 -0.749000 -1.111000 28.414000 # F
68 1 0.000000 0.839000 0.000000 29.705999 # C
69 3 0.000000 1.448000 -0.904000 29.705999 # H
70 3 0.000000 1.448000 0.904000 29.705999 # H
71 1 0.000000 0.000000 0.000000 30.997000 # C
72 2 0.000000 -0.749000 1.111000 30.997000 # F
73 2 0.000000 -0.749000 -1.111000 30.997000 # F
74 1 0.000000 0.839000 0.000000 32.289001 # C
75 3 0.000000 1.448000 -0.904000 32.289001 # H
76 3 0.000000 1.448000 0.904000 32.289001 # H
77 1 0.000000 0.000000 0.000000 33.580002 # C
78 2 0.000000 -0.749000 1.111000 33.580002 # F
79 2 0.000000 -0.749000 -1.111000 33.580002 # F
80 1 0.000000 0.839000 0.000000 34.872002 # C
81 3 0.000000 1.448000 -0.904000 34.872002 # H
82 2 0.000000 1.588000 1.111000 34.872002 # F
83 1 0.000000 0.000000 0.000000 36.162998 # C
84 2 0.000000 -0.749000 1.111000 36.162998 # F
85 2 0.000000 -0.749000 -1.111000 36.162998 # F
86 1 0.000000 0.839000 0.000000 37.455002 # C
87 3 0.000000 1.448000 -0.904000 37.455002 # H
88 3 0.000000 1.448000 0.904000 37.455002 # H
89 1 0.000000 0.000000 0.000000 38.747002 # C
90 2 0.000000 -0.749000 1.111000 38.747002 # F
91 2 0.000000 -0.749000 -1.111000 38.747002 # F
92 1 0.000000 0.839000 0.000000 40.037998 # C
93 3 0.000000 1.448000 -0.904000 40.037998 # H
94 3 0.000000 1.448000 0.904000 40.037998 # H
95 1 0.000000 0.000000 0.000000 41.330002 # C
96 2 0.000000 -0.749000 1.111000 41.330002 # F
97 2 0.000000 -0.749000 -1.111000 41.330002 # F
98 1 0.000000 0.839000 0.000000 42.620998 # C
99 2 0.000000 1.588000 -1.111000 42.620998 # F
100 3 0.000000 1.448000 0.904000 42.620998 # H
101 1 0.000000 0.000000 0.000000 43.912998 # C
102 2 0.000000 -0.749000 1.111000 43.912998 # F
103 2 0.000000 -0.749000 -1.111000 43.912998 # F
104 1 0.000000 0.839000 0.000000 45.203999 # C
105 3 0.000000 1.448000 -0.904000 45.203999 # H
106 3 0.000000 1.448000 0.904000 45.203999 # H
107 1 0.000000 0.000000 0.000000 46.495998 # C
108 2 0.000000 -0.749000 1.111000 46.495998 # F
109 2 0.000000 -0.749000 -1.111000 46.495998 # F
110 1 0.000000 0.839000 0.000000 47.786999 # C
111 3 0.000000 1.448000 -0.904000 47.786999 # H
112 3 0.000000 1.448000 0.904000 47.786999 # H
113 1 0.000000 0.000000 0.000000 49.078999 # C
114 2 0.000000 -0.749000 1.111000 49.078999 # F
115 2 0.000000 -0.749000 -1.111000 49.078999 # F
116 1 0.000000 0.839000 0.000000 50.370998 # C
117 3 0.000000 1.448000 -0.904000 50.370998 # H
118 2 0.000000 1.588000 1.111000 50.370998 # F
119 1 0.000000 0.000000 0.000000 51.661999 # C
120 2 0.000000 -0.749000 1.111000 51.661999 # F
121 2 0.000000 -0.749000 -1.111000 51.661999 # F
122 1 0.000000 0.839000 0.000000 52.953999 # C
123 3 0.000000 1.448000 -0.904000 52.953999 # H
124 3 0.000000 1.448000 0.904000 52.953999 # H
125 1 0.000000 0.000000 0.000000 54.244999 # C
126 2 0.000000 -0.749000 1.111000 54.244999 # F
127 2 0.000000 -0.749000 -1.111000 54.244999 # F
128 1 0.000000 0.839000 0.000000 55.536999 # C
129 3 0.000000 1.448000 -0.904000 55.536999 # H
130 3 0.000000 1.448000 0.904000 55.536999 # H
131 1 0.000000 0.000000 0.000000 56.827999 # C
132 2 0.000000 -0.749000 1.111000 56.827999 # F
133 2 0.000000 -0.749000 -1.111000 56.827999 # F
134 1 0.000000 0.839000 0.000000 58.119999 # C
135 2 0.000000 1.588000 -1.111000 58.119999 # F
136 3 0.000000 1.448000 0.904000 58.119999 # H
137 1 0.000000 0.000000 0.000000 59.410999 # C
138 2 0.000000 -0.749000 1.111000 59.410999 # F
139 2 0.000000 -0.749000 -1.111000 59.410999 # F
140 1 0.000000 0.839000 0.000000 60.702999 # C
141 3 0.000000 1.448000 -0.904000 60.702999 # H
142 3 0.000000 1.448000 0.904000 60.702999 # H
143 1 0.000000 0.000000 0.000000 61.994999 # C
144 2 0.000000 -0.749000 1.111000 61.994999 # F
145 2 0.000000 -0.749000 -1.111000 61.994999 # F
146 1 0.000000 0.839000 0.000000 63.285999 # C
147 3 0.000000 1.448000 -0.904000 63.285999 # H
148 3 0.000000 1.448000 0.904000 63.285999 # H
149 1 0.000000 0.000000 0.000000 64.578003 # C
150 2 0.000000 -0.749000 1.111000 64.578003 # F
151 1 0.000000 0.839000 0.000000 65.869003 # C
152 3 0.000000 1.448000 -0.904000 65.869003 # H
153 1 0.000000 0.000000 0.000000 67.161003 # C
154 2 0.000000 -0.749000 1.111000 67.161003 # F
155 2 0.000000 -0.749000 -1.111000 67.161003 # F
156 1 0.000000 0.839000 0.000000 68.452003 # C
157 3 0.000000 1.448000 -0.904000 68.452003 # H
158 3 0.000000 1.448000 0.904000 68.452003 # H
159 1 0.000000 0.000000 0.000000 69.744003 # C
160 2 0.000000 -0.749000 1.111000 69.744003 # F
161 2 0.000000 -0.749000 -1.111000 69.744003 # F
162 1 0.000000 0.839000 0.000000 71.035004 # C
163 3 0.000000 1.448000 -0.904000 71.035004 # H
164 3 0.000000 1.448000 0.904000 71.035004 # H
165 1 0.000000 0.000000 0.000000 72.327003 # C
166 2 0.000000 -0.749000 1.111000 72.327003 # F
167 2 0.000000 -0.749000 -1.111000 72.327003 # F
168 1 0.000000 0.839000 0.000000 73.619003 # C
169 2 0.000000 1.588000 -1.111000 73.619003 # F
170 3 0.000000 1.448000 0.904000 73.619003 # H
171 1 0.000000 0.000000 0.000000 74.910004 # C
172 2 0.000000 -0.749000 1.111000 74.910004 # F
173 2 0.000000 -0.749000 -1.111000 74.910004 # F
174 1 0.000000 0.839000 0.000000 76.202003 # C
175 3 0.000000 1.448000 -0.904000 76.202003 # H
176 3 0.000000 1.448000 0.904000 76.202003 # H
177 1 0.000000 0.000000 0.000000 77.492996 # C
178 2 0.000000 -0.749000 1.111000 77.492996 # F
179 2 0.000000 -0.749000 -1.111000 77.492996 # F
180 1 0.000000 0.839000 0.000000 78.785004 # C
181 3 0.000000 1.448000 -0.904000 78.785004 # H
182 3 0.000000 1.448000 0.904000 78.785004 # H
183 1 0.000000 0.000000 0.000000 80.075996 # C
184 2 0.000000 -0.749000 1.111000 80.075996 # F
185 2 0.000000 -0.749000 -1.111000 80.075996 # F
186 1 0.000000 0.839000 0.000000 81.367996 # C
187 3 0.000000 1.448000 -0.904000 81.367996 # H
188 2 0.000000 1.588000 1.111000 81.367996 # F
189 1 0.000000 0.000000 0.000000 82.658997 # C
190 2 0.000000 -0.749000 1.111000 82.658997 # F
191 2 0.000000 -0.749000 -1.111000 82.658997 # F
192 1 0.000000 0.839000 0.000000 83.950996 # C
193 3 0.000000 1.448000 -0.904000 83.950996 # H
194 3 0.000000 1.448000 0.904000 83.950996 # H
195 1 0.000000 0.000000 0.000000 85.241997 # C
196 2 0.000000 -0.749000 1.111000 85.241997 # F
197 2 0.000000 -0.749000 -1.111000 85.241997 # F
198 1 0.000000 0.839000 0.000000 86.533997 # C
199 3 0.000000 1.448000 -0.904000 86.533997 # H
200 3 0.000000 1.448000 0.904000 86.533997 # H
201 1 0.000000 0.000000 0.000000 87.825996 # C
202 2 0.000000 -0.749000 1.111000 87.825996 # F
203 2 0.000000 -0.749000 -1.111000 87.825996 # F
204 1 0.000000 0.839000 0.000000 89.116997 # C
205 2 0.000000 1.588000 -1.111000 89.116997 # F
206 3 0.000000 1.448000 0.904000 89.116997 # H
207 1 0.000000 0.000000 0.000000 90.408997 # C
208 2 0.000000 -0.749000 1.111000 90.408997 # F
209 2 0.000000 -0.749000 -1.111000 90.408997 # F
210 1 0.000000 0.839000 0.000000 91.699997 # C
211 3 0.000000 1.448000 -0.904000 91.699997 # H
212 3 0.000000 1.448000 0.904000 91.699997 # H
213 1 0.000000 0.000000 0.000000 92.991997 # C
214 2 0.000000 -0.749000 1.111000 92.991997 # F
215 2 0.000000 -0.749000 -1.111000 92.991997 # F
216 1 0.000000 0.839000 0.000000 94.282997 # C
217 3 0.000000 1.448000 -0.904000 94.282997 # H
218 3 0.000000 1.448000 0.904000 94.282997 # H
219 1 0.000000 0.000000 0.000000 95.574997 # C
220 2 0.000000 -0.749000 1.111000 95.574997 # F
221 2 0.000000 -0.749000 -1.111000 95.574997 # F
222 1 0.000000 0.839000 0.000000 96.865997 # C
223 3 0.000000 1.448000 -0.904000 96.865997 # H
224 2 0.000000 1.588000 1.111000 96.865997 # F
225 1 0.000000 0.000000 0.000000 98.157997 # C
226 2 0.000000 -0.749000 1.111000 98.157997 # F
227 2 0.000000 -0.749000 -1.111000 98.157997 # F
228 1 0.000000 0.839000 0.000000 99.449997 # C
229 3 0.000000 1.448000 -0.904000 99.449997 # H
230 3 0.000000 1.448000 0.904000 99.449997 # H
231 1 0.000000 0.000000 0.000000 100.740997 # C
232 2 0.000000 -0.749000 1.111000 100.740997 # F
233 2 0.000000 -0.749000 -1.111000 100.740997 # F
234 1 0.000000 0.839000 0.000000 102.032997 # C
235 3 0.000000 1.448000 -0.904000 102.032997 # H
236 3 0.000000 1.448000 0.904000 102.032997 # H
237 1 0.000000 0.000000 0.000000 103.323997 # C
238 2 0.000000 -0.749000 1.111000 103.323997 # F
239 2 0.000000 -0.749000 -1.111000 103.323997 # F
240 1 0.000000 0.839000 0.000000 104.615997 # C
241 2 0.000000 1.588000 -1.111000 104.615997 # F
242 3 0.000000 1.448000 0.904000 104.615997 # H
243 1 0.000000 0.000000 0.000000 105.906998 # C
244 2 0.000000 -0.749000 1.111000 105.906998 # F
245 2 0.000000 -0.749000 -1.111000 105.906998 # F
246 1 0.000000 0.839000 0.000000 107.198997 # C
247 3 0.000000 1.448000 -0.904000 107.198997 # H
248 3 0.000000 1.448000 0.904000 107.198997 # H
249 1 0.000000 0.000000 0.000000 108.489998 # C
250 2 0.000000 -0.749000 1.111000 108.489998 # F
251 2 0.000000 -0.749000 -1.111000 108.489998 # F
252 1 0.000000 0.839000 0.000000 109.781998 # C
253 3 0.000000 1.448000 -0.904000 109.781998 # H
254 3 0.000000 1.448000 0.904000 109.781998 # H
255 1 0.000000 0.000000 0.000000 111.073997 # C
256 2 0.000000 -0.749000 1.111000 111.073997 # F
257 2 0.000000 -0.749000 -1.111000 111.073997 # F
258 1 0.000000 0.839000 0.000000 112.364998 # C
259 3 0.000000 1.448000 -0.904000 112.364998 # H
260 2 0.000000 1.588000 1.111000 112.364998 # F
261 1 0.000000 0.000000 0.000000 113.656998 # C
262 2 0.000000 -0.749000 1.111000 113.656998 # F
263 2 0.000000 -0.749000 -1.111000 113.656998 # F
264 1 0.000000 0.839000 0.000000 114.947998 # C
265 3 0.000000 1.448000 -0.904000 114.947998 # H
266 3 0.000000 1.448000 0.904000 114.947998 # H
267 1 0.000000 0.000000 0.000000 116.239998 # C
268 2 0.000000 -0.749000 1.111000 116.239998 # F
269 2 0.000000 -0.749000 -1.111000 116.239998 # F
270 1 0.000000 0.839000 0.000000 117.530998 # C
271 3 0.000000 1.448000 -0.904000 117.530998 # H
272 3 0.000000 1.448000 0.904000 117.530998 # H
273 1 0.000000 0.000000 0.000000 118.822998 # C
274 2 0.000000 -0.749000 1.111000 118.822998 # F
275 2 0.000000 -0.749000 -1.111000 118.822998 # F
276 1 0.000000 0.839000 0.000000 120.113998 # C
277 2 0.000000 1.588000 -1.111000 120.113998 # F
278 3 0.000000 1.448000 0.904000 120.113998 # H
279 1 0.000000 0.000000 0.000000 121.405998 # C
280 2 0.000000 -0.749000 1.111000 121.405998 # F
281 2 0.000000 -0.749000 -1.111000 121.405998 # F
282 1 0.000000 0.839000 0.000000 122.697998 # C
283 3 0.000000 1.448000 -0.904000 122.697998 # H
284 3 0.000000 1.448000 0.904000 122.697998 # H
285 1 0.000000 0.000000 0.000000 123.993599 # C
286 2 0.000000 -0.749000 1.111000 123.993599 # F
287 2 0.000000 -0.749000 -1.111000 123.993599 # F
288 1 0.000000 0.839000 0.000000 125.285599 # C
289 3 0.000000 1.448000 -0.904000 125.285599 # H
290 3 0.000000 1.448000 0.904000 125.285599 # H
291 1 0.000000 0.000000 0.000000 126.576599 # C
292 2 0.000000 -0.749000 1.111000 126.576599 # F
293 1 0.000000 0.839000 0.000000 127.868599 # C
294 3 0.000000 1.448000 -0.904000 127.868599 # H
295 1 0.000000 0.000000 0.000000 129.159607 # C
296 2 0.000000 -0.749000 1.111000 129.159607 # F
297 2 0.000000 -0.749000 -1.111000 129.159607 # F
298 1 0.000000 0.839000 0.000000 130.451599 # C
299 3 0.000000 1.448000 -0.904000 130.451599 # H
300 3 0.000000 1.448000 0.904000 130.451599 # H
301 1 0.000000 0.000000 0.000000 131.742599 # C
302 2 0.000000 -0.749000 1.111000 131.742599 # F
303 2 0.000000 -0.749000 -1.111000 131.742599 # F
304 1 0.000000 0.839000 0.000000 133.034607 # C
305 3 0.000000 1.448000 -0.904000 133.034607 # H
306 3 0.000000 1.448000 0.904000 133.034607 # H
307 1 0.000000 0.000000 0.000000 134.325607 # C
308 2 0.000000 -0.749000 1.111000 134.325607 # F
309 2 0.000000 -0.749000 -1.111000 134.325607 # F
310 1 0.000000 0.839000 0.000000 135.617599 # C
311 2 0.000000 1.588000 -1.111000 135.617599 # F
312 3 0.000000 1.448000 0.904000 135.617599 # H
313 1 0.000000 0.000000 0.000000 136.909607 # C
314 2 0.000000 -0.749000 1.111000 136.909607 # F
315 2 0.000000 -0.749000 -1.111000 136.909607 # F
316 1 0.000000 0.839000 0.000000 138.200607 # C
317 3 0.000000 1.448000 -0.904000 138.200607 # H
318 3 0.000000 1.448000 0.904000 138.200607 # H
319 1 0.000000 0.000000 0.000000 139.492599 # C
320 2 0.000000 -0.749000 1.111000 139.492599 # F
321 2 0.000000 -0.749000 -1.111000 139.492599 # F
322 1 0.000000 0.839000 0.000000 140.783600 # C
323 3 0.000000 1.448000 -0.904000 140.783600 # H
324 3 0.000000 1.448000 0.904000 140.783600 # H
325 1 0.000000 0.000000 0.000000 142.075607 # C
326 2 0.000000 -0.749000 1.111000 142.075607 # F
327 2 0.000000 -0.749000 -1.111000 142.075607 # F
328 1 0.000000 0.839000 0.000000 143.366592 # C
329 3 0.000000 1.448000 -0.904000 143.366592 # H
330 2 0.000000 1.588000 1.111000 143.366592 # F
331 1 0.000000 0.000000 0.000000 144.658600 # C
332 2 0.000000 -0.749000 1.111000 144.658600 # F
333 2 0.000000 -0.749000 -1.111000 144.658600 # F
334 1 0.000000 0.839000 0.000000 145.949600 # C
335 3 0.000000 1.448000 -0.904000 145.949600 # H
336 3 0.000000 1.448000 0.904000 145.949600 # H
337 1 0.000000 0.000000 0.000000 147.241592 # C
338 2 0.000000 -0.749000 1.111000 147.241592 # F
339 2 0.000000 -0.749000 -1.111000 147.241592 # F
340 1 0.000000 0.839000 0.000000 148.533600 # C
341 3 0.000000 1.448000 -0.904000 148.533600 # H
342 3 0.000000 1.448000 0.904000 148.533600 # H
343 1 0.000000 0.000000 0.000000 149.824600 # C
344 2 0.000000 -0.749000 1.111000 149.824600 # F
345 2 0.000000 -0.749000 -1.111000 149.824600 # F
346 1 0.000000 0.839000 0.000000 151.116592 # C
347 2 0.000000 1.588000 -1.111000 151.116592 # F
348 3 0.000000 1.448000 0.904000 151.116592 # H
349 1 0.000000 0.000000 0.000000 152.407593 # C
350 2 0.000000 -0.749000 1.111000 152.407593 # F
351 2 0.000000 -0.749000 -1.111000 152.407593 # F
352 1 0.000000 0.839000 0.000000 153.699600 # C
353 3 0.000000 1.448000 -0.904000 153.699600 # H
354 3 0.000000 1.448000 0.904000 153.699600 # H
355 1 0.000000 0.000000 0.000000 154.990601 # C
356 2 0.000000 -0.749000 1.111000 154.990601 # F
357 2 0.000000 -0.749000 -1.111000 154.990601 # F
358 1 0.000000 0.839000 0.000000 156.282593 # C
359 3 0.000000 1.448000 -0.904000 156.282593 # H
360 3 0.000000 1.448000 0.904000 156.282593 # H
361 1 0.000000 0.000000 0.000000 157.573593 # C
362 2 0.000000 -0.749000 1.111000 157.573593 # F
363 2 0.000000 -0.749000 -1.111000 157.573593 # F
364 1 0.000000 0.839000 0.000000 158.865601 # C
365 3 0.000000 1.448000 -0.904000 158.865601 # H
366 2 0.000000 1.588000 1.111000 158.865601 # F
367 1 0.000000 0.000000 0.000000 160.156601 # C
368 2 0.000000 -0.749000 1.111000 160.156601 # F
369 2 0.000000 -0.749000 -1.111000 160.156601 # F
370 1 0.000000 0.839000 0.000000 161.448593 # C
371 3 0.000000 1.448000 -0.904000 161.448593 # H
372 3 0.000000 1.448000 0.904000 161.448593 # H
373 1 0.000000 0.000000 0.000000 162.740601 # C
374 2 0.000000 -0.749000 1.111000 162.740601 # F
375 2 0.000000 -0.749000 -1.111000 162.740601 # F
376 1 0.000000 0.839000 0.000000 164.031601 # C
377 3 0.000000 1.448000 -0.904000 164.031601 # H
378 3 0.000000 1.448000 0.904000 164.031601 # H
379 1 0.000000 0.000000 0.000000 165.323593 # C
380 2 0.000000 -0.749000 1.111000 165.323593 # F
381 2 0.000000 -0.749000 -1.111000 165.323593 # F
382 1 0.000000 0.839000 0.000000 166.614594 # C
383 2 0.000000 1.588000 -1.111000 166.614594 # F
384 3 0.000000 1.448000 0.904000 166.614594 # H
385 1 0.000000 0.000000 0.000000 167.906601 # C
386 2 0.000000 -0.749000 1.111000 167.906601 # F
387 2 0.000000 -0.749000 -1.111000 167.906601 # F
388 1 0.000000 0.839000 0.000000 169.197601 # C
389 3 0.000000 1.448000 -0.904000 169.197601 # H
390 3 0.000000 1.448000 0.904000 169.197601 # H
391 1 0.000000 0.000000 0.000000 170.489594 # C
392 2 0.000000 -0.749000 1.111000 170.489594 # F
393 2 0.000000 -0.749000 -1.111000 170.489594 # F
394 1 0.000000 0.839000 0.000000 171.780594 # C
395 3 0.000000 1.448000 -0.904000 171.780594 # H
396 3 0.000000 1.448000 0.904000 171.780594 # H
397 1 0.000000 0.000000 0.000000 173.072601 # C
398 2 0.000000 -0.749000 1.111000 173.072601 # F
399 2 0.000000 -0.749000 -1.111000 173.072601 # F
400 1 0.000000 0.839000 0.000000 174.364594 # C
401 3 0.000000 1.448000 -0.904000 174.364594 # H
402 2 0.000000 1.588000 1.111000 174.364594 # F
403 1 0.000000 0.000000 0.000000 175.655594 # C
404 2 0.000000 -0.749000 1.111000 175.655594 # F
405 2 0.000000 -0.749000 -1.111000 175.655594 # F
406 1 0.000000 0.839000 0.000000 176.947601 # C
407 3 0.000000 1.448000 -0.904000 176.947601 # H
408 3 0.000000 1.448000 0.904000 176.947601 # H
409 1 0.000000 0.000000 0.000000 178.238602 # C
410 2 0.000000 -0.749000 1.111000 178.238602 # F
411 2 0.000000 -0.749000 -1.111000 178.238602 # F
412 1 0.000000 0.839000 0.000000 179.530594 # C
413 3 0.000000 1.448000 -0.904000 179.530594 # H
414 3 0.000000 1.448000 0.904000 179.530594 # H
415 1 0.000000 0.000000 0.000000 180.821594 # C
416 2 0.000000 -0.749000 1.111000 180.821594 # F
417 2 0.000000 -0.749000 -1.111000 180.821594 # F
418 1 0.000000 0.839000 0.000000 182.113602 # C
419 2 0.000000 1.588000 -1.111000 182.113602 # F
420 3 0.000000 1.448000 0.904000 182.113602 # H
421 1 0.000000 0.000000 0.000000 183.404602 # C
422 2 0.000000 -0.749000 1.111000 183.404602 # F
423 2 0.000000 -0.749000 -1.111000 183.404602 # F
424 1 0.000000 0.839000 0.000000 184.696594 # C
425 3 0.000000 1.448000 -0.904000 184.696594 # H
426 3 0.000000 1.448000 0.904000 184.696594 # H
427 1 0.000000 0.000000 0.000000 185.988602 # C
428 2 0.000000 -0.749000 1.111000 185.988602 # F
429 2 0.000000 -0.749000 -1.111000 185.988602 # F
430 1 0.000000 0.839000 0.000000 187.279602 # C
431 3 0.000000 1.448000 -0.904000 187.279602 # H
432 3 0.000000 1.448000 0.904000 187.279602 # H
433 1 0.000000 0.000000 0.000000 188.571594 # C
434 2 0.000000 -0.749000 1.111000 188.571594 # F
435 1 0.000000 0.839000 0.000000 189.862595 # C
436 3 0.000000 1.448000 -0.904000 189.862595 # H
437 1 0.000000 0.000000 0.000000 191.154602 # C
438 2 0.000000 -0.749000 1.111000 191.154602 # F
439 2 0.000000 -0.749000 -1.111000 191.154602 # F
440 1 0.000000 0.839000 0.000000 192.445602 # C
441 3 0.000000 1.448000 -0.904000 192.445602 # H
442 3 0.000000 1.448000 0.904000 192.445602 # H
443 1 0.000000 0.000000 0.000000 193.737595 # C
444 2 0.000000 -0.749000 1.111000 193.737595 # F
445 2 0.000000 -0.749000 -1.111000 193.737595 # F
446 1 0.000000 0.839000 0.000000 195.028595 # C
447 3 0.000000 1.448000 -0.904000 195.028595 # H
448 3 0.000000 1.448000 0.904000 195.028595 # H
449 1 0.000000 0.000000 0.000000 196.320602 # C
450 2 0.000000 -0.749000 1.111000 196.320602 # F
451 2 0.000000 -0.749000 -1.111000 196.320602 # F
452 1 0.000000 0.839000 0.000000 197.612595 # C
453 2 0.000000 1.588000 -1.111000 197.612595 # F
454 3 0.000000 1.448000 0.904000 197.612595 # H
455 1 0.000000 0.000000 0.000000 198.903595 # C
456 2 0.000000 -0.749000 1.111000 198.903595 # F
457 2 0.000000 -0.749000 -1.111000 198.903595 # F
458 1 0.000000 0.839000 0.000000 200.195602 # C
459 3 0.000000 1.448000 -0.904000 200.195602 # H
460 3 0.000000 1.448000 0.904000 200.195602 # H
461 1 0.000000 0.000000 0.000000 201.486603 # C
462 2 0.000000 -0.749000 1.111000 201.486603 # F
463 2 0.000000 -0.749000 -1.111000 201.486603 # F
464 1 0.000000 0.839000 0.000000 202.778595 # C
465 3 0.000000 1.448000 -0.904000 202.778595 # H
466 3 0.000000 1.448000 0.904000 202.778595 # H
467 1 0.000000 0.000000 0.000000 204.069595 # C
468 2 0.000000 -0.749000 1.111000 204.069595 # F
469 2 0.000000 -0.749000 -1.111000 204.069595 # F
470 1 0.000000 0.839000 0.000000 205.361603 # C
471 3 0.000000 1.448000 -0.904000 205.361603 # H
472 2 0.000000 1.588000 1.111000 205.361603 # F
473 1 0.000000 0.000000 0.000000 206.652603 # C
474 2 0.000000 -0.749000 1.111000 206.652603 # F
475 2 0.000000 -0.749000 -1.111000 206.652603 # F
476 1 0.000000 0.839000 0.000000 207.944595 # C
477 3 0.000000 1.448000 -0.904000 207.944595 # H
478 3 0.000000 1.448000 0.904000 207.944595 # H
479 1 0.000000 0.000000 0.000000 209.235596 # C
480 2 0.000000 -0.749000 1.111000 209.235596 # F
481 2 0.000000 -0.749000 -1.111000 209.235596 # F
482 1 0.000000 0.839000 0.000000 210.527603 # C
483 3 0.000000 1.448000 -0.904000 210.527603 # H
484 3 0.000000 1.448000 0.904000 210.527603 # H
485 1 0.000000 0.000000 0.000000 211.819595 # C
486 2 0.000000 -0.749000 1.111000 211.819595 # F
487 2 0.000000 -0.749000 -1.111000 211.819595 # F
488 1 0.000000 0.839000 0.000000 213.110596 # C
489 2 0.000000 1.588000 -1.111000 213.110596 # F
490 3 0.000000 1.448000 0.904000 213.110596 # H
491 1 0.000000 0.000000 0.000000 214.402603 # C
492 2 0.000000 -0.749000 1.111000 214.402603 # F
493 2 0.000000 -0.749000 -1.111000 214.402603 # F
494 1 0.000000 0.839000 0.000000 215.693604 # C
495 3 0.000000 1.448000 -0.904000 215.693604 # H
496 3 0.000000 1.448000 0.904000 215.693604 # H
497 1 0.000000 0.000000 0.000000 216.985596 # C
498 2 0.000000 -0.749000 1.111000 216.985596 # F
499 2 0.000000 -0.749000 -1.111000 216.985596 # F
500 1 0.000000 0.839000 0.000000 218.276596 # C
501 3 0.000000 1.448000 -0.904000 218.276596 # H
502 3 0.000000 1.448000 0.904000 218.276596 # H
503 1 0.000000 0.000000 0.000000 219.568604 # C
504 2 0.000000 -0.749000 1.111000 219.568604 # F
505 2 0.000000 -0.749000 -1.111000 219.568604 # F
506 1 0.000000 0.839000 0.000000 220.859604 # C
507 3 0.000000 1.448000 -0.904000 220.859604 # H
508 2 0.000000 1.588000 1.111000 220.859604 # F
509 1 0.000000 0.000000 0.000000 222.151596 # C
510 2 0.000000 -0.749000 1.111000 222.151596 # F
511 2 0.000000 -0.749000 -1.111000 222.151596 # F
512 1 0.000000 0.839000 0.000000 223.443604 # C
513 3 0.000000 1.448000 -0.904000 223.443604 # H
514 3 0.000000 1.448000 0.904000 223.443604 # H
515 1 0.000000 0.000000 0.000000 224.734604 # C
516 2 0.000000 -0.749000 1.111000 224.734604 # F
517 2 0.000000 -0.749000 -1.111000 224.734604 # F
518 1 0.000000 0.839000 0.000000 226.026596 # C
519 3 0.000000 1.448000 -0.904000 226.026596 # H
520 3 0.000000 1.448000 0.904000 226.026596 # H
521 1 0.000000 0.000000 0.000000 227.317596 # C
522 2 0.000000 -0.749000 1.111000 227.317596 # F
523 2 0.000000 -0.749000 -1.111000 227.317596 # F
524 1 0.000000 0.839000 0.000000 228.609604 # C
525 2 0.000000 1.588000 -1.111000 228.609604 # F
526 3 0.000000 1.448000 0.904000 228.609604 # H
527 1 0.000000 0.000000 0.000000 229.900604 # C
528 2 0.000000 -0.749000 1.111000 229.900604 # F
529 2 0.000000 -0.749000 -1.111000 229.900604 # F
530 1 0.000000 0.839000 0.000000 231.192596 # C
531 3 0.000000 1.448000 -0.904000 231.192596 # H
532 3 0.000000 1.448000 0.904000 231.192596 # H
533 1 0.000000 0.000000 0.000000 232.483597 # C
534 2 0.000000 -0.749000 1.111000 232.483597 # F
535 2 0.000000 -0.749000 -1.111000 232.483597 # F
536 1 0.000000 0.839000 0.000000 233.775604 # C
537 3 0.000000 1.448000 -0.904000 233.775604 # H
538 3 0.000000 1.448000 0.904000 233.775604 # H
539 1 0.000000 0.000000 0.000000 235.067596 # C
540 2 0.000000 -0.749000 1.111000 235.067596 # F
541 2 0.000000 -0.749000 -1.111000 235.067596 # F
542 1 0.000000 0.839000 0.000000 236.358597 # C
543 3 0.000000 1.448000 -0.904000 236.358597 # H
544 2 0.000000 1.588000 1.111000 236.358597 # F
545 1 0.000000 0.000000 0.000000 237.650604 # C
546 2 0.000000 -0.749000 1.111000 237.650604 # F
547 2 0.000000 -0.749000 -1.111000 237.650604 # F
548 1 0.000000 0.839000 0.000000 238.941605 # C
549 3 0.000000 1.448000 -0.904000 238.941605 # H
550 3 0.000000 1.448000 0.904000 238.941605 # H
551 1 0.000000 0.000000 0.000000 240.233597 # C
552 2 0.000000 -0.749000 1.111000 240.233597 # F
553 2 0.000000 -0.749000 -1.111000 240.233597 # F
554 1 0.000000 0.839000 0.000000 241.524597 # C
555 3 0.000000 1.448000 -0.904000 241.524597 # H
556 3 0.000000 1.448000 0.904000 241.524597 # H
557 1 0.000000 0.000000 0.000000 242.816605 # C
558 2 0.000000 -0.749000 1.111000 242.816605 # F
559 2 0.000000 -0.749000 -1.111000 242.816605 # F
560 1 0.000000 0.839000 0.000000 244.107605 # C
561 2 0.000000 1.588000 -1.111000 244.107605 # F
562 3 0.000000 1.448000 0.904000 244.107605 # H
563 1 0.000000 0.000000 0.000000 245.399597 # C
564 2 0.000000 -0.749000 1.111000 245.399597 # F
565 2 0.000000 -0.749000 -1.111000 245.399597 # F
566 1 0.000000 0.839000 0.000000 246.691605 # C
567 3 0.000000 1.448000 -0.904000 246.691605 # H
568 3 0.000000 1.448000 0.904000 246.691605 # H

