ITEM: TIMESTEP
0
ITEM: NUMBER OF ATOMS
5160
ITEM: BOX BOUNDS xy xz yz pp pp pp
-6.1836472434332101e-02 8.0618364724512830e+00 0.0000000000000000e+00
-2.4734588973940959e+00 3.2247345889739358e+02 0.0000000000000000e+00
-3.5548242090948179e-01 4.6345482420911097e+01 0.0000000000000000e+00
ITEM: ATOMS id q xu yu zu
1 0.161947 -3.43817 -3.09832 7.37183
2 -0.146677 -3.4147 -3.94276 7.99934
3 0.252274 -4.63784 -4.7002 8.14275
4 0.164176 -1.21096 -7.71592 9.70072
5 0.126089 -1.34505 -3.56167 8.64746
6 0.143102 1.00032 -5.1912 11.1026
7 -0.100805 -2.25752 -4.18357 8.76895
8 -0.146579 -4.49994 -5.83624 9.02885
9 0.157485 -5.29845 -6.49391 9.19513
10 -0.0112244 -2.22305 -5.28915 9.74687
11 -0.30165 -0.404587 -7.01167 9.91834
12 -0.106271 -3.41024 -6.17406 9.8552
13 0.159677 0.0761213 -6.77127 8.94549
14 -0.307769 0.121795 -4.67159 10.6691
15 0.163126 0.306075 -7.49332 10.592
16 0.142935 -3.36404 -7.07233 10.4718
17 0.00393644 -1.05556 -5.70683 10.5768
18 0.141857 0.442394 -4.28776 9.65511
19 0.156916 -0.163764 -3.85026 11.2703
20 -0.00818391 -1.50698 -5.94232 12.0402
21 0.149478 -0.789967 -8.03057 12.4557
22 0.138783 -2.34983 -3.85034 12.0703
23 -0.100679 -1.41402 -7.15627 12.7998
24 -0.0907475 -2.25411 -4.78601 12.6284
25 -0.129117 -2.10486 -7.29316 14.031
26 -0.154975 -3.04185 -4.95952 13.7815
27 0.162873 -2.01144 -8.28114 14.5512
28 0.146759 -3.68067 -4.14986 14.1615
29 0.26933 -2.98753 -6.22725 14.4606
30 -0.527322 -3.84722 -6.51578 15.4011
31 0.188651 -2.15933 -4.67243 16.2023
32 0.222667 -4.19524 -5.42915 16.212
33 -0.136606 -3.16524 -4.52446 16.6121
34 0.180355 -6.32185 -5.99296 16.4899
35 -0.12568 -5.51501 -5.32259 16.8098
36 -0.0768689 -3.34086 -3.43808 17.5539
37 0.192922 -2.46797 -2.76733 17.8995
38 -0.0387653 -5.73548 -4.36434 17.8253
39 -0.0757958 -4.65838 -3.36902 18.2304
40 0.404486 -6.96741 -4.18149 18.6715
41 -0.478214 -8.0343 -4.67492 18.5729
42 0.370214 -5.1753 -2.58187 19.375
43 -0.42113 -6.57856 -2.99176 19.6944
44 -0.604931 -4.52264 -1.70942 20.0423
45 0.188076 -9.26039 -3.198 20.1352
46 0.179504 -7.39257 -2.38596 20.8316
47 -0.105624 -8.77393 -2.61111 20.9133
48 0.238927 -5.71649 -1.35517 21.9545
49 -0.152357 -6.82789 -1.5526 21.8712
50 -0.0954193 -9.50101 -2.04006 22.0254
51 0.152144 -10.5817 -2.1793 21.9986
52 0.164575 -7.47522 -0.9494 22.9786
53 -0.097862 -8.90957 -1.18321 22.9626
54 -0.472084 -4.54989 -0.0616308 23.2617
55 -0.430819 -6.81845 -0.241756 24.1425
56 0.188518 -9.62089 -0.744404 23.7092
57 0.388977 -5.25912 -0.0792211 24.205
58 -0.476216 -8.54823 -0.4358 25.9209
59 0.388617 -7.4203 -0.200839 25.5697
60 -0.0579601 -4.99398 0.276327 25.6667
61 -0.056066 -6.2703 0.278596 26.4599
62 0.155775 -2.92366 0.973295 25.6587
63 -0.0835107 -3.80473 0.887863 26.264
64 -0.144719 -6.25146 0.715811 27.8517
65 0.154746 -7.1475 0.635744 28.4417
66 -0.154432 -3.77295 1.17802 27.6189
67 0.243841 -5.00433 1.08789 28.4194
68 0.139629 -2.82931 1.5239 28.0491
69 0.168414 -4.8564 2.73436 31.8608
70 -0.513148 -5.12578 1.62137 29.6741
71 -0.121893 -4.15596 1.87849 31.7702
72 0.249961 -4.14045 1.20744 30.4794
73 0.150263 -3.44986 1.98565 33.8687
74 0.148747 -1.22616 -2.0022 33.5339
75 0.141498 -0.336964 1.17166 35.3636
76 -0.109347 -3.35561 1.52468 32.8965
77 -0.15931 -3.15979 0.110819 30.3851
78 0.151471 -3.07448 -0.398931 29.4235
79 -0.313972 -0.646901 -1.10682 33.9027
80 -0.0171308 -2.42193 0.421692 32.7319
81 -0.307085 -0.693006 1.30734 34.3214
82 0.132234 0.0711612 -0.934809 33.1572
83 -0.111641 -2.37705 -0.313017 31.4583
84 0.143955 0.140151 1.28298 33.6478
85 0.163944 -0.225918 -1.36869 34.8775
86 0.138532 -1.15508 2.31637 34.2926
87 0.00569203 -1.63691 0.110023 33.9979
88 0.129723 -1.72504 -1.16424 31.3913
89 -0.00206623 -2.66273 -0.266152 35.022
90 0.139193 -1.71712 0.699628 36.7687
91 0.145237 -3.90659 -1.45521 33.587
92 -0.0897595 -2.5786 0.170326 36.4169
93 -0.0947676 -3.80949 -1.08707 34.6287
94 -0.144684 -3.61155 -0.160779 37.3077
95 -0.129657 -4.84076 -1.40077 35.5277
96 0.156169 -3.48019 0.0793003 38.3725
97 0.162911 -5.64123 -1.99233 35.1509
98 0.259408 -4.80386 -0.898853 36.9086
99 -0.506084 -5.82423 -1.23019 37.7067
100 0.163717 -3.58766 -1.94952 39.1339
101 0.2493 -5.60246 -1.2203 39.0294
102 -0.155203 -4.41133 -1.65384 39.738
103 0.173162 -7.69096 -0.544167 39.2264
104 -0.11076 -6.83735 -0.930922 39.7625
105 -0.0554786 -4.45213 -1.98271 41.096
106 0.164393 -3.60654 -2.41329 41.6273
107 -0.0405942 -6.81179 -1.19127 41.1471
108 -0.0523952 -5.62245 -1.74383 41.8661
109 0.39667 -8.02724 -0.95162 42.1551
110 -0.474512 -9.09657 -0.659781 41.7719
111 0.400707 -6.05794 -1.9523 43.3059
112 -0.417283 -7.41371 -1.25802 43.5681
113 -0.471383 -5.40104 -2.54198 44.1298
114 0.17055 -8.29854 -1.60709 44.7495
115 0.246557 -6.52361 -2.3763 45.8267
116 0.187632 -10.2049 -1.02988 43.9471
117 -0.14563 -7.6399 -2.18367 45.894
118 -0.118101 -9.66734 -1.31402 44.8606
119 0.169752 -8.2716 -2.42764 47.1332
120 -0.0881486 -10.3914 -1.56213 46.0686
121 0.159003 -11.4474 -1.2835 46.0353
122 -0.520222 -9.1951 -2.8905 50.1238
123 -0.125846 -9.65222 -2.0252 47.2011
124 -0.459819 -7.51893 -3.00805 48.2902
125 0.391326 -8.09078 -3.06755 49.7451
126 -0.514894 -5.16844 -3.0065 47.6458
127 0.405362 -5.9786 -3.21043 48.4557
128 0.172653 -10.2194 -2.20034 48.1409
129 -0.0563613 -6.97981 -3.53245 50.743
130 -0.0839429 -5.76058 -3.6655 49.9197
131 0.156402 -7.85069 -3.84718 52.7571
132 -0.13711 -6.97511 -3.88456 52.1197
133 -0.0726655 -4.50912 -4.07473 50.5375
134 0.159938 -3.54622 -4.12264 49.9653
135 0.2725 -5.70034 -4.20359 52.7837
136 -0.140611 -4.50546 -4.24578 51.9547
137 -0.527515 -5.73992 -4.42827 54.0818
138 0.164393 -3.52743 -4.50444 52.367
139 0.150404 6.98985 1.89804 3.05044
140 -0.123285 7.94126 1.5079 2.64404
141 0.25346 7.98949 1.39526 1.19273
142 0.167608 12.0595 -1.37611 2.70093
143 0.168525 8.96806 1.42902 4.50749
144 0.143897 13.1288 2.30272 4.05031
145 -0.106535 9.03364 1.21428 3.47833
146 -0.143974 9.1677 0.793475 0.58206
147 0.171164 9.30326 0.781782 -0.544501
148 0.000452712 10.2763 0.743683 2.84899
149 -0.306361 12.5831 -0.432604 2.87098
150 -0.0913445 10.2771 0.500675 1.40362
151 0.144556 12.964 -0.00606729 1.91347
152 -0.223538 12.4091 1.93211 3.3274
153 0.154227 13.4798 -0.693904 3.51986
154 0.136253 11.1808 0.0535099 0.957514
155 0.0171854 11.607 0.661584 3.60355
156 0.330037 11.4822 5.07306 2.70625
157 0.179049 12.159 2.58102 2.42227
158 -0.000432485 11.5317 0.284664 5.06758
159 0.138212 9.57515 -0.786961 4.98833
160 0.135639 13.5348 1.07537 5.63993
161 -0.0920868 10.4077 -0.467453 5.66155
162 -0.0962786 12.6191 0.527362 6.0238
163 -0.146218 10.3747 -0.720048 7.08096
164 -0.131847 12.6165 0.159439 7.38829
165 0.140526 9.51741 -1.23807 7.46882
166 0.188109 13.4459 0.352405 8.07903
167 0.27047 11.4913 -0.5581 7.9549
168 -0.484414 11.589 -1.24118 9.09896
169 0.162452 12.0094 -2.9552 10.8147
170 0.25594 10.5572 -1.66789 9.87795
171 -0.124729 11.0768 -2.41621 11.0087
172 0.153427 8.8907 -0.566219 9.16372
173 -0.156005 9.26723 -1.08865 9.98381
174 -0.104914 10.3568 -2.62453 12.2224
175 0.140754 10.7651 -3.16725 13.0282
176 -0.0470567 8.46347 -1.26474 11.1585
177 -0.077064 9.0411 -2.0078 12.3459
178 0.375967 7.08365 -0.790642 11.6023
179 -0.463727 6.29075 -0.395203 10.7825
180 0.367806 8.08098 -2.02856 13.5288
181 -0.435527 6.85027 -1.13934 13.1201
182 -0.447361 8.07718 -2.81069 14.4322
183 0.205894 4.31658 -0.50891 12.2332
184 0.183233 5.67747 -0.832155 13.9927
185 -0.109003 4.39571 -0.579552 13.3822
186 0.203013 6.73888 -1.20223 15.8847
187 -0.161198 5.81408 -0.818441 15.411
188 -0.097717 3.31801 -0.25411 14.2784
189 0.143862 2.35768 -0.00338592 13.8738
190 0.174395 4.80664 -0.352702 16.2966
191 -0.112378 3.51794 -0.198595 15.7182
192 -0.461765 6.88545 -1.12685 18.6562
193 -0.476488 5.00542 0.18675 17.6897
194 0.1685 2.62789 0.0997042 16.2956
195 0.369598 6.21158 -0.121994 18.6005
196 -0.468918 3.49299 2.17224 17.8078
197 0.396587 4.35923 1.49501 18.2981
198 -0.0457245 6.3754 0.938617 19.6317
199 -0.0506127 5.16522 1.90853 19.4607
200 0.174827 8.23435 0.614383 20.7303
201 -0.0672044 7.35816 1.24239 20.6409
202 -0.115369 5.0036 3.04089 20.3246
203 0.176308 4.17257 3.75433 20.274
204 -0.142172 7.09295 2.3587 21.478
205 0.242869 6.01737 3.31695 21.3168
206 0.155323 7.87724 2.64006 22.1955
207 0.150496 5.24748 3.24585 23.8929
208 -0.511396 6.16514 4.58156 21.7456
209 -0.147155 6.05295 3.95874 24.0794
210 0.250369 6.65725 4.73402 22.983
211 0.124801 6.16966 3.3375 26.2053
212 0.142233 9.99746 3.47573 26.9561
213 0.149952 9.41462 6.05756 28.435
214 -0.104194 6.61176 3.98519 25.3611
215 -0.143908 7.6982 5.68474 23.3784
216 0.160583 8.03018 6.35279 22.5849
217 -0.302594 9.00845 3.46981 27.4595
218 -0.0102238 7.73731 4.83186 25.7017
219 -0.305943 9.07106 6.05016 27.4077
220 0.146126 9.25386 3.21708 28.5475
221 -0.11082 8.29514 5.71679 24.6516
222 0.125078 9.96829 6.03266 26.7543
223 0.140332 8.49985 2.5377 27.0257
224 0.157251 8.569 6.94938 27.0452
225 0.01041 8.15042 4.81269 27.1405
226 0.13085 9.13433 6.38553 24.7359
227 -0.0122379 6.98815 4.8573 28.0966
228 0.162267 5.84234 6.34436 26.9382
229 0.118449 7.8007 3.34985 29.487
230 -0.0986546 5.87717 5.77766 27.8366
231 -0.115315 6.96813 4.04108 29.3241
232 -0.125233 4.84609 5.86744 28.8128
233 -0.163749 5.93115 4.12188 30.2802
234 0.159047 3.95712 6.5745 28.6177
235 0.140711 6.0015 3.50139 31.1853
236 0.267432 4.87037 5.12092 30.0805
237 -0.498487 3.98607 5.44058 31.0094
238 0.138722 6.39882 5.27376 32.2096
239 0.249877 4.27754 5.00265 32.274
240 -0.16629 5.62092 4.94886 32.8308
241 0.153578 2.11755 4.56193 32.8369
242 -0.134993 3.20443 4.59633 33.1707
243 -0.115931 5.91643 4.46193 34.121
244 0.124878 6.97209 4.39884 34.4501
245 -0.0456135 3.44597 4.25081 34.5334
246 -0.0899271 4.84503 4.16179 35.055
247 0.395263 2.46749 3.7265 35.6041
248 -0.543393 1.32785 3.58479 35.3869
249 0.398662 4.82533 3.67703 36.4855
250 -0.445878 3.43316 3.44243 36.9136
251 -0.633496 5.85923 3.37276 37.1619
252 0.171721 2.99572 2.79677 38.2257
253 0.236724 4.88251 2.84162 39.2913
254 0.161539 1.01394 2.47748 37.596
255 -0.147162 3.82796 2.66815 39.392
256 -0.129616 1.66555 2.40951 38.4633
257 0.18454 3.33323 2.39961 40.7262
258 -0.088432 1.07906 2.14795 39.7155
259 0.1846 0.0211229 2.01807 39.8745
260 -0.480963 2.78058 1.66529 43.8189
261 -0.111345 1.97668 2.10275 40.8479
262 -0.427411 4.23002 2.60557 41.8961
263 0.393479 3.80992 2.02404 43.3586
264 -0.484431 6.4159 3.01743 40.8947
265 0.406569 5.73633 2.84372 41.8928
266 0.192534 1.5878 1.9086 41.8984
267 -0.051691 5.1596 2.1346 44.1298
268 -0.0474845 6.29462 2.63877 43.2836
269 0.15932 4.66578 1.43006 46.0959
270 -0.12972 5.46743 1.76827 45.4808
271 -0.0536112 7.61564 2.85596 43.8167
272 0.159605 8.45736 3.22588 43.151
273 0.261859 6.79227 2.04522 46.0384
274 -0.148768 7.84403 2.58516 45.1659
275 -0.526696 6.78541 1.70744 47.3219
276 0.166091 8.83673 2.71666 45.5456
277 0.130313 10.9131 2.41968 14.0989
278 -0.140322 11.9256 2.51584 13.6007
279 0.238131 12.114 2.13792 12.2069
280 0.143557 16.6206 1.62202 15.9593
281 0.165065 12.797 3.18726 15.4711
282 0.114724 16.6125 4.79883 13.5994
283 -0.100316 12.9787 2.90498 14.4703
284 -0.141215 13.4811 2.08188 11.7425
285 0.183863 13.6892 1.76023 10.7016
286 -0.00535815 14.3727 2.93903 13.9785
287 -0.235919 15.6703 2.0739 15.811
288 -0.0945189 14.5156 2.49392 12.6244
289 0.330471 20.4427 -1.20135 19.3659
290 -0.320969 16.788 3.91545 14.2372
291 0.169586 14.8927 1.4866 16.2186
292 0.132015 15.5402 2.4097 12.1859
293 0.0237046 15.458 3.35625 14.9316
294 0.135761 17.4844 4.35082 14.9584
295 0.133648 17.2474 3.18381 13.6203
296 -0.00212157 14.9076 4.48293 15.7577
297 0.118287 14.2327 5.56577 13.9642
298 0.1426 15.3194 3.57971 17.7976
299 -0.125021 14.3047 5.56585 15.0549
300 -0.096951 14.9543 4.46049 17.217
301 -0.147644 13.7832 6.65968 15.8188
302 -0.158542 14.504 5.54933 17.9677
303 0.146284 13.3389 7.50621 15.3582
304 0.164799 14.6008 5.5717 19.0665
305 0.263052 13.9262 6.69069 17.2494
306 -0.503454 13.4525 7.77373 17.8092
307 0.158104 15.7751 8.07764 19.3613
308 0.236056 13.5754 7.97411 19.2194
309 -0.141117 14.7795 8.16771 19.9015
310 0.197419 11.3264 7.97879 19.2023
311 -0.0913794 12.2641 8.00203 19.8203
312 -0.0625906 14.7338 8.23087 21.3587
313 0.192227 15.6511 8.32329 21.8954
314 -0.04441 12.1963 8.23265 21.219
315 -0.0336179 13.4803 8.30081 22.0234
316 0.407035 10.9775 8.41334 22.1374
317 -0.500499 9.85893 8.48371 21.7832
318 0.412115 13.1205 8.60956 23.48
319 -0.447368 11.5757 8.54765 23.6267
320 -0.465924 13.9839 8.74864 24.2977
321 0.20004 8.81682 9.01642 23.9915
322 0.166474 10.8474 8.80487 24.8936
323 -0.130465 9.42979 9.08993 24.8633
324 0.233097 12.6224 8.86395 26.1457
325 -0.146763 11.4969 9.02057 26.1615
326 -0.0663812 8.77518 9.49934 26.0279
327 0.208429 7.67395 9.69846 26.0571
328 0.171102 10.8737 9.44106 27.3728
329 -0.13032 9.48588 9.69786 27.2613
330 -0.478088 13.9382 8.89977 28.1802
331 -0.435856 11.6078 9.51247 28.7132
332 0.191385 8.88846 9.9274 28.1541
333 0.415173 13.0946 9.10378 28.9679
334 -0.501671 9.86354 10.2362 30.2859
335 0.408045 10.982 9.90419 30.0683
336 -0.0271526 13.3534 9.23597 30.513
337 -0.0389035 12.114 9.64868 31.1075
338 0.152489 15.458 8.5181 30.9491
339 -0.0706643 14.4511 8.79358 31.3879
340 -0.12439 11.9466 9.68161 32.5713
341 0.163305 11.0171 9.98051 33.0261
342 -0.152171 14.223 8.84428 32.7801
343 0.244224 13.0305 9.31863 33.4326
344 0.126348 15.1213 8.51319 33.422
345 0.147376 13.9626 7.117 34.5477
346 -0.507295 13.0079 9.64878 34.7894
347 -0.16416 14.26 7.63513 35.4797
348 0.261104 13.8066 9.01764 35.6416
349 0.133639 15.1997 5.85636 36.415
350 0.272664 14.8795 3.44916 36.6312
351 0.140004 18.0267 7.62535 39.0027
352 -0.114075 15.0418 6.93645 36.4627
353 -0.142218 14.2713 9.7551 36.8101
354 0.155518 14.1038 10.8236 36.9475
355 -0.239128 16.3541 5.52992 38.5401
356 -0.0077141 15.4187 7.70345 37.6759
357 -0.308798 17.1109 7.81265 39.5638
358 0.148391 17.1948 5.22229 37.9483
359 -0.102746 15.0069 9.09249 37.7927
360 0.118239 16.9111 8.91615 39.6196
361 0.17917 15.7753 4.66563 38.8202
362 0.164419 17.2843 7.46958 40.6159
363 0.0217185 15.9366 6.97664 38.9058
364 0.134877 15.2913 9.69441 38.7326
365 0.00384539 14.716 6.96722 39.7725
366 0.123492 15.4139 8.23336 41.4433
367 0.16063 13.5008 5.92534 38.2179
368 -0.0947511 14.4878 7.66369 41.016
369 -0.0838104 13.505 6.33819 39.2006
370 -0.152915 13.2676 7.6145 41.7188
371 -0.126718 12.3205 6.26294 39.942
372 0.163249 13.2299 8.1442 42.6675
373 0.15326 11.429 5.79781 39.4476
374 0.258963 12.0925 6.90421 41.2485
375 -0.515921 11.0332 6.55326 41.9666
376 0.169741 13.209 5.75152 43.4169
377 0.252943 11.1188 6.25305 43.323
378 -0.137089 12.2901 5.77056 43.9865
379 0.176245 8.94498 6.8025 43.6116
380 -0.111022 9.89234 6.36194 44.0603
381 -0.0680353 12.267 5.36525 45.3585
382 0.179393 13.1407 4.9721 45.7811
383 -0.0328966 9.81751 5.87787 45.4256
384 -0.0418258 11.0747 5.46549 46.1369
385 0.400347 8.57433 5.70678 46.3561
386 -0.471266 7.39343 5.93961 46.0157
387 0.415203 10.7244 5.10196 47.5506
388 -0.495663 9.24494 5.19337 47.59
389 -0.64709 11.6101 4.72804 48.4327
390 0.20201 8.44697 4.79866 48.7195
391 0.208377 10.1168 4.12457 50.0001
392 0.206873 6.45219 5.32944 47.8859
393 -0.132574 9.05531 4.31157 49.9717
394 -0.103209 7.00052 4.95843 48.7784
395 0.185197 8.40914 3.89893 51.1892
396 -0.0773022 6.29955 4.64607 49.9612
397 0.181974 5.24674 4.72963 49.9656
398 -0.496925 7.56387 2.36471 53.8711
399 -0.136798 6.99052 4.1574 51.1343
400 -0.448261 9.21755 3.39667 52.3452
401 0.385221 8.67834 2.77117 53.6632
402 -0.486348 11.4977 4.29722 51.8898
403 0.407401 10.6805 3.88042 52.6893
404 0.179448 6.49269 4.00149 52.0321
405 -0.0559854 9.85739 2.8505 54.6514
406 -0.0480067 11.0444 3.61457 54.117
407 0.163885 9.0135 1.75919 56.38
408 -0.134806 9.88176 2.30165 55.9806
409 -0.072362 12.2126 3.82945 54.9802
410 0.153296 13.1007 4.37133 54.6784
411 0.247776 11.0041 2.45216 56.8537
412 -0.155708 12.0614 3.24898 56.302
413 -0.501418 10.9927 1.9369 58.1361
414 0.138201 12.9065 3.5235 56.9162
415 0.128827 13.5517 8.82781 11.4145
416 -0.170894 14.3553 8.18285 11.1403
417 0.246469 14.1012 7.05339 10.2307
418 0.151191 19.075 6.20048 11.1828
419 0.119295 15.6506 9.2213 12.4675
420 0.144677 19.793 8.83831 11.3145
421 -0.114651 15.6268 8.34192 11.7682
422 -0.163945 15.1992 6.13828 10.1342
423 0.137937 15.0722 5.21714 9.56563
424 -0.0166833 16.7538 7.40532 11.5413
425 -0.307267 19.0598 6.6139 12.2012
426 -0.122617 16.4975 6.23942 10.6795
427 0.135975 20.0358 6.89713 12.5177
428 -0.296374 18.7137 8.86176 11.2092
429 0.119793 18.7761 5.74519 12.8149
430 0.116993 17.2853 5.47637 10.5245
431 0.010333 18.0068 7.79582 12.1907
432 0.163865 18.489 8.56988 10.185
433 0.149608 18.3044 9.88622 11.4059
434 -0.00359028 17.901 8.28852 13.5956
435 0.128867 19.6017 9.69929 13.3661
436 0.119951 16.2642 6.96425 14.1659
437 -0.11059 18.8566 9.25355 14.0383
438 -0.118214 16.9494 7.7083 14.5193
439 -0.124842 18.9337 9.66359 15.3934
440 -0.161474 16.9456 8.218 15.8239
441 0.184367 19.6149 10.4256 15.7755
442 0.149132 16.2321 7.81836 16.5096
443 0.253072 17.9273 9.15778 16.3472
444 -0.476525 17.8376 9.82231 17.5106
445 0.146255 15.336 10.1138 16.1544
446 0.247314 16.6139 10.2564 17.9472
447 -0.158101 15.3841 10.2876 17.1897
448 0.227839 17.4737 10.9782 19.8435
449 -0.102644 16.5417 10.8566 19.281
450 -0.0511046 14.1151 10.6771 17.7275
451 0.175963 13.2412 10.6882 17.0775
452 -0.0598334 15.3318 11.1417 19.9279
453 -0.0371441 14.0429 11.0232 19.1478
454 0.411258 15.0781 11.5874 21.3757
455 -0.470002 15.7702 11.5162 22.3252
456 0.411568 12.9621 11.485 20.101
457 -0.412605 13.551 11.9013 21.4714
458 -0.436603 11.7894 11.4322 19.8866
459 0.21517 10.9206 11.6114 21.9337
460 0.188791 12.856 11.9994 22.821
461 -0.099181 11.4088 11.8514 22.8468
462 0.227054 14.5863 12.4515 24.0379
463 -0.138306 13.5 12.3173 24.0151
464 -0.075419 10.664 12.045 24.0187
465 0.194916 9.56397 11.9565 24.0181
466 0.181567 12.7845 12.5108 25.2607
467 -0.101637 11.3932 12.4298 25.2068
468 -0.494268 15.89 12.2286 26.0706
469 -0.413956 13.4714 12.4838 26.6005
470 0.195702 10.7833 12.6457 26.1359
471 0.398446 15.0042 12.229 26.8816
472 -0.512205 11.8433 13.6338 27.9665
473 0.431282 12.8566 13.0582 27.8943
474 -0.0588125 15.2489 12.5134 28.3613
475 -0.0449007 13.9707 13.0466 28.973
476 0.179258 17.2942 12.0978 28.8592
477 -0.0704006 16.3531 12.4488 29.2752
478 -0.126 13.8499 13.3792 30.3495
479 0.160526 12.837 13.6662 30.7287
480 -0.152176 16.2452 12.8859 30.6158
481 0.233026 15.015 13.3612 31.2112
482 0.153717 17.1143 12.9084 31.2489
483 0.156035 15.7013 11.3243 33.1077
484 -0.480145 14.9513 13.9178 32.4422
485 -0.138603 16.1453 12.1982 33.6919
486 0.212943 16.0506 13.5008 33.2337
487 0.127672 16.7178 10.8754 35.2209
488 0.130516 18.1863 10.3438 36.8145
489 0.155176 18.5782 14.282 38.6698
490 -0.11291 16.7211 11.8975 35.0043
491 -0.122589 16.6329 14.4994 34.0867
492 0.160501 16.6414 15.5356 33.6977
493 -0.308778 18.7639 11.2589 37.0549
494 -0.00732224 17.2961 12.905 35.8353
495 -0.245497 18.7602 13.7438 37.7042
496 0.162571 19.4869 11.4109 36.2358
497 -0.111465 17.1906 14.2853 35.3942
498 0.143692 19.5114 14.1064 37.1034
499 0.14934 19.3082 11.0847 37.9497
500 0.304438 12.266 17.0543 38.7733
501 0.0171348 17.8823 12.5767 37.2135
502 0.142292 17.5936 15.1605 35.9433
503 -0.00643773 16.725 12.3366 38.1918
504 0.147303 15.3588 13.3077 36.7908
505 0.124108 17.8479 11.4694 39.8979
506 -0.118591 15.4022 12.8189 37.7605
507 -0.119711 16.8601 11.6962 39.4898
508 -0.15152 14.2928 12.7633 38.6006
509 -0.176931 15.7144 11.5078 40.2446
510 0.14502 13.3698 13.2046 38.2865
511 0.138127 15.8491 10.9294 41.2006
512 0.251222 14.3905 12.0036 39.8318
513 -0.52174 13.2062 11.6318 40.3198
514 0.151801 14.8452 12.5752 42.3031
515 0.258201 13.0847 11.4703 41.6528
516 -0.16142 14.073 11.911 42.6295
517 0.148212 11.0732 10.5474 41.4078
518 -0.128332 11.8949 10.7727 42.1136
519 -0.0686967 14.0692 11.4142 43.9495
520 0.151765 14.9044 11.6822 44.6326
521 -0.057803 11.7761 10.3832 43.4493
522 -0.0527857 12.9122 10.6969 44.4149
523 0.407671 10.6114 9.81661 44.3164
524 -0.483302 9.46751 9.72363 44.0223
525 0.3839 12.5457 10.1799 45.7733
526 -0.412358 11.1902 9.3463 45.6454
527 -0.458541 13.2596 10.3026 46.7387
528 0.185022 10.3363 8.95325 46.8257
529 0.234606 12.0069 8.29304 48.0028
530 0.189703 8.33714 9.53084 46.1927
531 -0.133326 10.9191 8.44812 48.0153
532 -0.111573 8.91356 9.09866 46.9872
533 0.177629 10.3623 8.00584 49.2481
534 -0.0774917 8.23016 8.82948 48.1903
535 0.192378 7.1323 8.98681 48.2347
536 -0.45738 9.42351 6.78022 52.0875
537 -0.114974 8.94663 8.26445 49.2953
538 -0.441444 11.1272 7.40363 50.3949
539 0.402609 10.5669 7.04203 51.798
540 -0.476042 13.4557 8.03949 49.7605
541 0.384722 12.6625 7.68897 50.601
542 0.183291 8.37024 7.98409 50.1577
543 -0.0269132 11.7154 7.10057 52.8296
544 -0.0537008 12.9661 7.54246 52.1006
545 0.173735 10.9996 6.44455 54.7461
546 -0.11724 11.8055 6.85745 54.2162
547 -0.0658339 14.2034 7.70497 52.7895
548 0.162359 15.1547 8.00039 52.2473
549 0.243434 13.0697 7.01338 54.9277
550 -0.149919 14.2227 7.43622 54.2242
551 -0.530778 12.9402 6.92654 56.2889
552 0.155791 15.2062 7.49227 54.7199
553 0.183099 3.80905 16.0337 3.79488
554 -0.12684 4.51659 15.352 3.33878
555 0.254556 4.35504 15.1298 1.9239
556 0.137065 7.74601 11.3297 3.45377
557 0.148053 5.62637 14.7669 5.13083
558 0.145813 9.01646 14.9794 3.79378
559 -0.0975018 5.55891 14.7067 4.04378
560 -0.163847 5.27467 14.242 1.22969
561 0.149722 5.20977 14.089 0.162903
562 -0.0145408 6.4995 13.795 3.34866
563 -0.316704 8.37708 12.1478 3.73275
564 -0.107404 6.31952 13.5601 1.94736
565 0.132585 8.95332 12.4699 2.86632
566 -0.307612 8.57952 14.5288 4.71422
567 0.130114 9.14072 11.8385 4.5094
568 0.126853 7.04112 12.9104 1.42424
569 0.00515376 7.53622 13.3592 4.37123
570 0.16826 8.1698 15.3886 5.28509
571 0.133564 9.41848 14.1434 5.38834
572 -0.0183927 6.82411 12.8464 5.55922
573 0.139453 5.63663 11.5266 4.22391
574 0.131977 7.6561 14.0251 7.1786
575 -0.104958 5.81078 11.8242 5.2767
576 -0.115351 6.89959 13.33 6.95201
577 -0.128198 5.0235 11.2582 6.28162
578 -0.151718 6.08762 12.7948 7.9096
579 0.156766 4.25497 10.5178 5.95681
580 0.151477 6.17756 13.1674 8.95206
581 0.267316 5.03126 11.7825 7.65359
582 -0.497501 4.17435 11.2629 8.49306
583 0.146095 6.19298 10.9286 10.1287
584 0.236643 4.13356 11.683 9.84616
585 -0.146515 5.2862 11.3301 10.636
586 0.169367 2.18192 12.5974 9.86606
587 -0.125048 3.09049 12.336 10.4345
588 -0.103313 5.43304 11.5966 12.022
589 0.136153 6.36477 11.4046 12.5367
590 -0.0471716 3.05568 12.547 11.922
591 -0.0759654 4.31167 12.1442 12.7093
592 0.391519 1.96791 12.9313 12.8159
593 -0.487824 0.832276 13.0149 12.4316
594 0.390128 4.00446 12.4973 14.1681
595 -0.43247 2.53939 12.9802 14.2991
596 -0.513399 4.76903 12.3956 15.0919
597 0.167229 -0.179065 12.7143 14.6908
598 0.179099 1.7608 13.2001 15.5573
599 -0.126243 0.360866 13.0205 15.5982
600 0.235686 3.57609 13.5628 16.8812
601 -0.132526 2.45391 13.5221 16.8026
602 -0.104247 -0.367443 13.4905 16.7342
603 0.177079 -1.46194 13.5069 16.7345
604 0.184741 1.73451 13.8175 17.9849
605 -0.119056 0.30075 13.8255 17.9472
606 -0.501488 4.83479 14.3183 18.5225
607 -0.416027 2.50599 14.2265 19.2467
608 0.192601 -0.364278 13.9001 18.7829
609 0.43225 3.99937 14.42 19.3528
610 -0.479818 0.747938 14.6713 20.9083
611 0.411325 1.89139 14.6527 20.6322
612 -0.044913 4.36195 15.0339 20.7726
613 -0.0597211 3.02704 15.2378 21.4756
614 0.188209 6.48275 15.2877 20.7635
615 -0.0709531 5.59401 15.4207 21.3035
616 -0.134123 3.15443 15.714 22.8239
617 0.17385 2.28977 15.7532 23.442
618 -0.154983 5.6304 15.9414 22.6335
619 0.269959 4.45445 16.0632 23.3866
620 0.162985 6.59846 16.1179 23.0827
621 0.148744 4.37594 17.9438 26.7333
622 -0.517273 4.40129 16.4977 24.6442
623 -0.13232 5.31428 17.409 26.641
624 0.277628 5.4545 16.5808 25.4905
625 0.148011 6.28076 18.3948 28.4209
626 0.158095 9.61621 15.0953 27.9457
627 0.17071 9.44551 18.8223 27.6147
628 -0.0916513 6.35907 17.5769 27.6193
629 -0.146042 6.64506 15.7605 25.4094
630 0.153068 6.73088 14.8998 24.7177
631 -0.302153 9.20039 15.5225 28.8869
632 0.00654636 7.5901 16.8034 27.4926
633 -0.296954 9.81424 17.7899 27.8947
634 0.153263 8.36429 14.8719 29.1099
635 -0.0849296 7.67473 15.8996 26.3429
636 0.109091 10.7193 17.8853 28.6073
637 0.135122 10.0266 15.5902 29.6809
638 0.161099 10.2264 17.3081 26.9412
639 0.00872922 8.64482 16.9983 28.5442
640 0.141461 8.44306 15.1329 26.2998
641 -0.0145731 8.12187 17.6051 29.7722
642 0.119533 9.52227 19.3427 29.7812
643 0.144488 6.64587 16.0621 30.4148
644 -0.111694 8.60121 18.9365 30.2245
645 -0.104369 6.98367 17.0625 30.5193
646 -0.123989 7.90598 19.5859 31.2209
647 -0.157569 6.26821 17.7466 31.522
648 0.153107 8.36865 20.5318 31.5635
649 0.141481 5.42717 17.1883 32.0096
650 0.271307 6.73871 19.0402 31.9554
651 -0.48347 6.33018 19.6324 33.067
652 0.148548 3.94374 20.037 32.0379
653 0.230923 5.14539 19.1511 33.6463
654 -0.152546 3.9288 19.6254 33.0603
655 0.202719 6.15608 18.1679 35.4095
656 -0.12341 5.18018 18.5594 34.9578
657 -0.08604 2.67007 19.491 33.7575
658 0.149121 1.72201 19.7986 33.2969
659 -0.0603322 3.90752 18.4033 35.6681
660 -0.0620857 2.60428 18.8199 35.0407
661 0.389332 3.53346 17.8587 37.0014
662 -0.603564 4.42396 17.3236 37.7477
663 0.401295 1.447 18.4082 35.9573
664 -0.478845 2.07862 17.9631 37.3035
665 -0.499892 0.323932 18.3989 35.605
666 0.1512 1.24202 17.2709 38.4566
667 0.194004 2.63524 17.5016 40.0213
668 0.179048 -0.534564 16.9516 37.2274
669 -0.165366 1.72961 16.9541 39.7508
670 -0.118459 -0.0533644 16.7831 38.249
671 0.189437 1.13679 16.2373 40.8126
672 -0.0884782 -0.694789 15.8777 39.1978
673 0.151257 -1.64153 15.4723 38.9962
674 -0.46047 0.0757303 15.4188 43.5982
675 -0.0988067 -0.122357 15.6073 40.4683
676 -0.425923 1.94805 15.843 42.0292
677 0.396806 1.26032 15.5313 43.3957
678 -0.454504 4.25325 16.7563 41.6079
679 0.40056 3.41043 16.2757 42.3174
680 0.170384 -0.661632 14.8387 41.123
681 -0.0406056 2.25805 15.7883 44.5393
682 -0.0361286 3.53789 16.2092 43.8868
683 0.163273 1.29636 15.5631 46.473
684 -0.121689 2.25648 15.7583 45.9775
685 -0.05909 4.71403 16.62 44.636
686 0.188625 5.62 16.887 44.0995
687 0.257543 3.44119 16.0221 46.7505
688 -0.144027 4.64002 16.4279 46.0298
689 -0.510428 3.34764 15.7997 48.0808
690 0.157868 5.53818 16.5013 46.6951
691 0.161542 -0.686046 22.2623 -12.9947
692 -0.152933 -0.339093 22.5947 -12.019
693 0.249869 0.50155 23.7643 -12.1368
694 0.151099 -2.3247 22.9394 -7.78009
695 0.152994 -1.31087 21.0951 -10.8121
696 0.173708 -0.22967 19.86 -8.98536
697 -0.0937761 -0.688943 21.9599 -10.7924
698 -0.138253 0.885993 24.3538 -10.856
699 0.143414 1.49361 25.2217 -10.8952
700 -0.0100198 -0.174687 22.4775 -9.55954
701 -0.309461 -1.38439 22.7455 -7.27992
702 -0.106359 0.608434 23.7024 -9.63272
703 0.159844 -1.67266 22.1867 -6.37078
704 -0.302967 -0.959038 20.4969 -8.44136
705 0.154206 -0.928446 23.7114 -7.10801
706 0.129822 0.948745 24.0942 -8.67157
707 0.0126719 -0.357397 21.9146 -8.17102
708 0.166848 -1.24484 20.0276 -7.5179
709 0.13311 -1.89764 20.491 -8.99351
710 -0.0140725 1.03103 21.6939 -7.51445
711 0.142205 2.10371 21.1564 -9.40814
712 0.139259 0.505675 22.4365 -5.45321
713 -0.0924015 2.19166 21.3292 -8.29216
714 -0.103233 1.31349 22.0196 -6.08749
715 -0.13952 3.42846 21.0722 -7.73424
716 -0.140489 2.58873 21.8136 -5.50627
717 0.135815 4.27023 20.7914 -8.44039
718 0.161327 2.6466 22.0974 -4.44509
719 0.255234 3.65334 21.1125 -6.26405
720 -0.515677 4.66526 20.5017 -5.65244
721 0.158838 6.74464 20.4643 -4.10168
722 0.262334 4.55033 20.162 -4.32616
723 -0.126548 5.82549 20.2242 -3.58701
724 0.173825 2.38403 19.8114 -4.33241
725 -0.135812 3.32056 19.8453 -3.74724
726 -0.075958 5.91594 20.1278 -2.21686
727 0.179782 6.85096 20.3685 -1.70872
728 -0.0454017 3.38254 19.6453 -2.31343
729 -0.058429 4.6449 19.8323 -1.49738
730 0.399851 2.19723 19.5442 -1.38288
731 -0.483798 1.07689 19.4645 -1.75501
732 0.396494 4.25078 19.7254 -0.066385
733 -0.452458 2.73187 19.7089 0.0972927
734 -0.455674 5.05047 19.6071 0.821263
735 0.195914 0.0970653 19.131 0.28882
736 0.186471 2.02074 19.2291 1.32314
737 -0.112229 0.616527 18.9799 1.26255
738 0.247639 3.67209 19.2366 2.68943
739 -0.127113 2.63735 18.9371 2.59655
740 -0.0654066 -0.112567 18.5641 2.40443
741 0.193299 -1.22344 18.4315 2.34771
742 0.187282 1.97957 18.4404 3.77749
743 -0.128665 0.581759 18.2132 3.60508
744 -0.436111 5.09655 18.7895 4.64486
745 -0.439547 2.72561 18.0978 5.01635
746 0.18565 -0.00895283 17.8158 4.41259
747 0.39626 4.25696 18.3221 5.33739
748 -0.514957 0.922864 17.1424 6.50793
749 0.391923 2.07358 17.4445 6.27604
750 -0.0620244 4.44991 17.7265 6.7649
751 -0.0513172 3.16881 17.0948 7.27436
752 0.153367 6.55258 18.2719 7.29048
753 -0.0942453 5.57173 17.8014 7.62
754 -0.117611 2.98462 16.4989 8.57579
755 0.156189 1.95219 16.1927 8.98898
756 -0.170374 5.47401 17.0691 8.8304
757 0.243784 4.21843 16.5218 9.35951
758 0.129317 6.32313 16.9659 9.46761
759 0.127416 4.52544 18.2666 11.3011
760 -0.487469 4.09867 15.8225 10.4868
761 -0.157157 4.94645 17.5158 11.9556
762 0.241364 4.93733 16.1375 11.5267
763 0.136313 5.2357 18.9363 13.4421
764 0.141772 7.72946 15.7221 16.2924
765 0.163331 7.59908 19.1125 16.5456
766 -0.118023 5.41865 17.9293 13.2337
767 -0.125434 5.53372 15.2087 12.5061
768 0.167653 5.64384 14.124 12.3137
769 -0.220837 7.07855 16.5341 16.6047
770 -0.0172299 5.93228 16.9974 14.2259
771 -0.303657 7.30181 18.7263 15.5478
772 0.283887 8.55012 23.5239 18.4135
773 -0.102447 6.00873 15.6363 13.7799
774 0.134366 8.18076 18.3565 14.9386
775 0.169171 6.81685 16.5825 17.6694
776 0.1298 6.86433 19.5856 15.0562
777 0.0119335 6.30358 17.4786 15.6707
778 0.138438 6.39649 14.8594 14.4935
779 0.000559022 5.05414 17.8918 16.3468
780 0.135416 5.60797 19.8888 17.2193
781 0.157621 4.04656 16.145 15.3898
782 -0.108923 4.86594 19.0791 17.1377
783 -0.100671 3.9342 16.9898 16.0483
784 -0.148638 3.56704 19.2137 17.7481
785 -0.136447 2.6905 17.0912 16.7185
786 0.165958 3.51181 20.1912 18.3907
787 0.15474 1.90125 16.3403 16.5555