LAMMPS data file via write_data, version 19 Nov 2024, timestep = 0, units = real

5160 atoms
4 atom types

-0.0618364724343321 8.061836472451283 xlo xhi
-2.473458897394096 322.4734588973936 ylo yhi
-0.3554824209094818 46.3454824209111 zlo zhi
0 0 0 xy xz yz

Masses

1 12.0107
2 1.00794
3 15.999
4 14.0067

Atoms # charge

157 2 0.179048871028486 4.03529856269816 2.5810202236705155 2.422273189960282 1 0 0
152 1 -0.2235365930413828 4.28543685231338 1.9321113872932179 3.3274044244140306 1 0 0
145 1 -0.1065331312758454 0.9099626160434662 1.2142772439785987 3.4783279211442135 1 0 0
143 2 0.1685250210290443 0.8443840062022365 1.429016496055465 4.50749176892081 1 0 0
148 1 0.0004518673538905019 2.152585329388323 0.7436829641069442 2.848987262407255 1 0 0
139 2 0.150403663579341 6.989848213807179 1.8980384383539892 3.0504357529089963 0 0 0
140 1 -0.1232838238180206 7.941256701175761 1.5078959109551793 2.6440370821651995 0 0 0
155 1 0.01718131227151776 3.4833732107653996 0.6615835411475914 3.6035455461925783 1 0 0
158 1 -0.0004316890572194677 3.4080313695637554 0.2846640095098443 5.067582351540033 1 0 0
149 1 -0.3063543172844951 4.45946670923491 -0.43260399471316147 2.8709834085116235 1 0 0
161 1 -0.09208502530875071 2.2840536736232404 -0.4674534384300344 5.661553863010539 1 0 0
162 1 -0.09627901437752934 4.495412949203989 0.5273621632895993 6.023799370663686 1 0 0
160 2 0.1356378932868502 5.41113506049419 1.0753705214304436 5.639930048326879 1 0 0
401 1 0.3852209714238612 0.5546621202303432 2.7711690471607 6.962187307225805 1 0 1
163 1 -0.1462156565783068 2.2510192517597605 -0.7200475318382149 7.080959627183851 1 0 0
159 2 0.1382124231646208 1.4514760107683309 -0.7869605686008674 4.988332207219899 1 0 0
144 2 0.143896570652067 5.005117549663805 2.302721923863725 4.050305009032242 1 0 0
150 1 -0.09134743399678827 2.1534205121162597 0.5006746085949421 1.4036179779561198 1 0 0
141 1 0.2534590419641504 7.989494897085739 1.3952640313069504 1.1927279320468067 0 0 0
153 2 0.1542249607247778 5.3561548092517235 -0.693904395272444 3.5198613733014925 1 0 0
142 2 0.1676067325322615 3.935858161898284 -1.3761066947536027 2.7009344362492396 1 0 0
151 2 0.144553360136641 4.840311456247236 -0.006067289761684691 1.9134684580023906 1 0 0
154 2 0.1362531629976905 3.057160618396803 0.0535098589774452 0.9575137491051955 1 0 0
275 3 -0.5266949204070742 6.7854052261548485 1.7074374933579906 0.6208975056966556 0 0 1
146 1 -0.1439717390318608 1.0440276432987767 0.7934751652742373 0.5820601678677786 1 0 0
400 4 -0.448269538546591 1.0938815636864954 3.3966733141686767 5.644205887575106 1 0 1
403 1 0.407408264342733 2.556853620709546 3.880415540794065 5.988300593857423 1 0 1
398 3 -0.4969270524587603 7.563869822072393 2.364710204184793 7.170130213555523 0 0 1
406 1 -0.04801016056938847 2.920702810469152 3.6145668068640022 7.4159991900394475 1 0 1
395 1 0.1852061033581608 0.28546227788236667 3.8989265558145147 4.488234429622239 1 0 1
404 2 0.1794475103003566 6.4926886444225875 4.001491729610184 5.33114610763381 0 0 1
391 2 0.2083826036350862 1.9930859904381104 4.124566539956347 3.29911752681369 1 0 1
123 1 -0.1258522000084175 6.5951308465197345 -2.0252030614641487 0.5001245365138929 -2 0 1
399 1 -0.1368039562405829 6.990516152270724 4.157403988452735 4.4333424215535 0 0 1
164 1 -0.1318451591252228 4.492843847685145 0.15943932430311625 7.388286184341193 1 0 0
128 2 0.172654163671143 6.027985401561009 -2.200342871689799 1.4399175221197205 -2 0 1
119 1 0.1697539077958107 7.975748484960156 -2.4276391936631225 0.43225339605775903 -2 0 1
393 1 -0.132588151600351 0.9316382514795131 4.311567848795926 3.2707827560480163 1 0 1
402 3 -0.4863535904448429 3.3739832248975863 4.297218427300778 5.188884797802157 1 0 1
396 1 -0.07729360549829913 6.299547660293709 4.646069748202039 3.260198335659804 0 0 1
390 1 0.2020273099283659 0.32330057265534584 4.798656676246589 2.018567240955419 1 0 1
389 3 -0.6471002039452968 3.486401616446332 4.728044385915449 1.7317174724374995 1 0 1
156 2 0.3300410984126129 3.3584891631552654 5.073057095858981 2.7062465026763403 1 0 0
397 2 0.1819724131931157 5.24674209639818 4.729632150062455 3.2646502976438034 0 0 1
394 1 -0.1032231089751683 7.000523603132192 4.958433908252941 2.0774015769844363 0 0 1
392 2 0.206876732380326 6.4521885095135705 5.329435006363889 1.1848901259012474 0 0 1
541 1 0.3847239465443686 4.538862456971579 7.688973847086595 3.899990735984659 1 0 1
538 4 -0.4414443182023652 3.003529041607835 7.403633914801588 3.6939774327316446 1 0 1
542 2 0.1832940359117493 0.24657194230156826 7.984091814170251 3.456697698916218 1 0 1
539 1 0.4026093040028477 2.44321058233308 7.042030452978738 5.096987438569418 1 0 1
536 3 -0.4573788065115118 1.2998414580295552 6.780224838151263 5.386568296144087 1 0 1
544 1 -0.05370259344891129 4.842414793707215 7.5424611096941 5.399598874360917 1 0 1
548 2 0.1623602364751436 7.031056762580025 8.00038870635364 5.546375436516029 1 0 1
547 1 -0.06583330229264592 6.079772496912565 7.704966071710201 6.088569087296995 1 0 1
543 1 -0.02691272471187562 3.5916927560665792 7.100571080948141 6.12867635126307 1 0 1
540 3 -0.476045612801103 5.332041835557825 8.039485492962275 3.059517785562316 1 0 1
537 1 -0.1149755128744137 0.8229578748368274 8.26445033286239 2.5943681386750215 1 0 1
533 1 0.1776329983714247 2.2386241828435414 8.00584138791989 2.54713211037203 1 0 1
531 1 -0.1333285233585187 2.795403876830907 8.44811907046759 1.3143434593882382 1 0 1
529 2 0.2346075950545937 3.883220554147143 8.29303635673829 1.3018086103234612 1 0 1
534 1 -0.07748731720320584 0.10648850306048749 8.829484942474908 1.489287122048268 1 0 1
388 4 -0.4956813284614584 1.1212648974875996 5.193369564570543 0.8890816395796659 1 0 1
387 1 0.4152203331107863 2.6006824747664297 5.101964386266653 0.8496367242122853 1 0 1
535 2 0.192379669487787 7.1323046849984335 8.98681011781767 1.5337710653091572 0 0 1
579 2 0.1567648749921459 4.254969485478041 10.517806133538015 5.956812511638541 0 0 0
528 1 0.1850246452504935 2.2126627561977297 8.953253592457017 0.12469327023491455 1 0 1
532 1 -0.111576988823074 0.7898864123018153 9.09866459423181 0.2862828767510053 1 0 1
527 3 -0.4585437181362508 5.135927994675971 10.30255338055467 0.03768656874928511 1 0 1
385 1 0.40035804398022 0.4506530024328236 5.706784973500799 -0.3448990925927905 1 0 1
577 1 -0.128194719292358 5.023496184072335 11.258244059240438 6.281617446349723 0 0 0
573 2 0.139453511426243 5.63662619728632 11.526593717698999 4.223908745443636 0 0 0
556 2 0.1370633424899692 7.746012347902966 11.329655714142541 3.4537703122269074 0 0 0
567 2 0.1301114445559263 1.0170498752168524 11.838529313982356 4.509396401296913 1 0 0
575 1 -0.1049597928645892 5.810776462751258 11.824191257087639 5.276704279897979 0 0 0
563 1 -0.3166947104115266 0.25341095268702096 12.147788013628208 3.732754664257695 1 0 0
565 2 0.1325819227781984 0.829650874778103 12.469871944282355 2.8663225726419745 1 0 0
568 2 0.1268538138009909 7.041118687033107 12.9103964446036 1.424237341426331 0 0 0
564 1 -0.107405496281431 6.31951625180886 13.560091336649496 1.9473564939465406 0 0 0
569 1 0.005152947804393564 7.5362217417689115 13.359159978710903 4.371226182384137 0 0 0
572 1 -0.01839562422925852 6.8241079600717995 12.846404122447863 5.559219143109117 0 0 0
571 2 0.1335617282316759 1.2948119262154423 14.143415457556682 5.388344251899503 1 0 0
554 1 -0.126838149788898 4.516593522032433 15.35201687705927 3.3387821244897586 0 0 0
562 1 -0.0145406798533397 6.499496970779963 13.794966685656515 3.348657387979127 0 0 0
559 1 -0.09750139697260729 5.558913554416866 14.706723857150909 4.043780081914265 0 0 0
557 2 0.148053650486196 5.62637171703924 14.766920383111223 5.130831191886421 0 0 0
566 1 -0.3076038669715158 0.45585153325861727 14.528807192720485 4.714215574045078 1 0 0
558 2 0.1458103802269153 0.8927847562400928 14.97944252786409 3.793779697653836 1 0 0
570 2 0.1682590571886005 0.0461316139415114 15.388639587158245 5.285085906487465 1 0 0
749 1 0.3919267074107179 2.0735813829255947 17.44445316163297 6.276040674245193 0 0 0
576 1 -0.1153510702986631 6.899586680982484 13.329974410624459 6.952005614003701 0 0 0
574 2 0.1319767355163878 7.656102572737259 14.025083954596006 7.178598129794883 0 0 0
748 3 -0.5149566938511991 0.922864208532524 17.142391191910022 6.5079277805055495 0 0 0
553 2 0.1830996227726743 3.809049129035282 16.033664729607317 3.7948832200027898 0 0 0
555 1 0.2545537421728679 4.355035408959226 15.12976418640579 1.923899035937048 0 0 0
689 3 -0.5104257624032486 3.3476419938763238 15.79970569319826 1.3798343214090392 0 0 1
560 1 -0.163843124557641 5.274670633994053 14.241977394863877 1.2296855670479618 0 0 0
750 1 -0.06202764907305806 4.449910874102996 17.726488860741366 6.764895059062474 0 0 0
751 1 -0.05131845308340215 3.16881409471759 17.094792942435426 7.274364547493254 0 0 0
561 2 0.149719920071358 5.209771607637153 14.089000885146689 0.1629027664381224 0 0 0
687 1 0.2575358534988675 3.4411876881251304 16.02208603623999 0.04958212939055712 0 0 1
690 2 0.1578679529707548 5.538182440479169 16.501291945193817 -0.005837479258099354 0 0 1
683 2 0.1632725191539454 1.296361353279927 15.56309744571032 -0.2279578193666429 0 0 1
746 2 0.1856528266450714 -0.008952829883603415 17.815768947953497 4.412588995264858 0 0 0
165 2 0.140526233494897 1.3937341786510453 -1.2380660204462368 7.468821017247904 1 0 0
167 1 0.2704672107116513 3.3675915338295543 -0.5580996290685338 7.9548977533015 1 0 0
170 1 0.2559340133572437 2.4335103756532055 -1.6678936383470417 9.877954356870719 1 0 0
166 2 0.188108092143405 5.3222019050176295 0.3524047022982453 8.07902575384042 1 0 0
405 1 -0.05598615372166406 1.7337193412491247 2.850502822683856 7.950439655138139 1 0 1
168 3 -0.4844118556218688 3.4653545699467294 -1.241180771065296 9.098956543132836 1 0 0
172 2 0.1534250856714341 0.7670296769186039 -0.5662191855794485 9.163717971299642 1 0 0
408 1 -0.1348001539323133 1.7580870614152426 2.3016534955320864 9.27966937909335 1 0 1
407 2 0.1638839688770761 0.8898232189318808 1.7591873491095233 9.679043744150361 1 0 1
178 1 0.3759663275645205 7.083650964174466 -0.7906418869749319 11.60234743866561 0 0 0
181 4 -0.435524133058842 6.850268385353305 -1.1393355069632929 13.12009227479717 0 0 0
179 3 -0.4637276637902576 6.290748618064124 -0.3952027029943519 10.782538346321905 0 0 0
176 1 -0.04706010333674728 0.3397928890825961 -1.2647425509732058 11.158522535421282 1 0 0
173 1 -0.1559986577890758 1.143561009026065 -1.088651017730385 9.983809103352888 1 0 0
185 1 -0.1090093056856806 4.395708138814082 -0.5795523892077825 13.382230834347643 0 0 0
184 1 0.1832339221860889 5.677472773625737 -0.832154724045576 13.992746719038637 0 0 0
189 2 0.1438616255050091 2.3576844963929395 -0.0033859211472639927 13.87383153980363 0 0 0
188 1 -0.09771806868218885 3.3180109738765853 -0.2541101070674765 14.278367007181787 0 0 0
183 2 0.2058944642336519 4.3165766311097356 -0.5089100915024951 12.23317939760372 0 0 0
411 1 0.2477696505246462 2.8804222495774807 2.4521581404822994 10.15271220408272 1 0 1
413 3 -0.5014165037068938 2.8690393869836908 1.936902795351437 11.435161912221567 1 0 1
285 2 0.1838641118202857 5.565514531812585 1.7602341288863927 10.701597858281417 1 0 0
284 1 -0.1412123683033942 5.3574372342483585 2.081880685557567 11.742514767877656 1 0 0
292 2 0.1320143259800521 7.416522081416659 2.4096979404285044 12.185937393403522 1 0 0
279 1 0.2381291850035661 3.9902857757414267 2.137924451297039 12.206884106762606 1 0 0
288 1 -0.09451984286350341 6.391886815070119 2.49392015509246 12.62435221005091 1 0 0
278 1 -0.1403201187273127 3.8019115241522745 2.515842633250452 13.600731406860659 1 0 0
286 1 -0.005357788600973808 6.249047912549611 2.93903367570113 13.978459096092973 1 0 0
412 1 -0.1557052678320762 3.937707191740788 3.248975296716277 9.601067610066202 1 0 1
277 2 0.1303137197150997 2.7894045682304953 2.419679117587683 14.098948263854815 1 0 0
409 1 -0.07236180920319847 4.088888364204884 3.829448300728999 8.279211680993205 1 0 1
283 1 -0.1003183495545225 4.854996644114501 2.9049840760223677 14.470327354281343 1 0 0
295 2 0.1336458992850112 1.0000507974898967 3.183810210726957 13.620308893412473 2 0 0
293 1 0.02370029375329184 7.3342785528196535 3.3562453609491225 14.9315644370353 1 0 0
414 2 0.1382012051650807 4.782812592223342 3.523499265085073 10.215237973517166 1 0 1
290 1 -0.3209576683856825 0.5406942841811131 3.915454396023846 14.237246742148201 2 0 0
180 1 0.3678096244728041 -0.04268854051671769 -2.0285571195298995 13.52877642882996 1 0 0
177 1 -0.07706572039335097 0.9174221064738116 -2.0078005392832483 12.34594062373757 1 0 0
171 1 -0.124728783205304 2.953092569191821 -2.41620965865832 11.008700223834559 1 0 0
410 2 0.1532961805023436 4.977021775026799 4.371327817116093 7.977448246640007 1 0 1
550 1 -0.1499141831017486 6.098986559742642 7.436222916995337 7.523200603324389 1 0 1
546 1 -0.1172332844043245 3.681807803165736 6.857445270669983 7.515204354187964 1 0 1
552 2 0.155790666377625 7.082515885638659 7.49227378920456 8.018976789963375 1 0 1
545 2 0.1737332224460245 2.875940399708995 6.444548362257377 8.04511889543056 1 0 1
549 1 0.2434277126349728 4.946068968317519 7.013375153693538 8.226714723801148 1 0 1
423 2 0.1379367209351261 6.948537736782677 5.2171398459430325 9.565634652892456 1 0 0
551 3 -0.5307771463084581 4.816566001467174 6.92653850324305 9.587893697224585 1 0 1
282 2 0.1147213976195321 0.3651953438411454 4.798832235887799 13.599449876943147 2 0 0
432 2 0.163863571808016 2.2416960898690474 8.569876076813552 10.184970186867217 2 0 0
415 2 0.1288272174487965 5.427988774958657 8.827811572268354 11.414457626456791 1 0 0
416 1 -0.1708915079818393 6.231623209572027 8.182853151148594 11.140335235707624 1 0 0
417 1 0.2464674956162201 5.977529007273869 7.053386817071468 10.230658335428013 1 0 0
422 1 -0.1639422595695356 7.075528990156926 6.138278328549898 10.134190873853365 1 0 0
430 2 0.1169933203208832 1.0379237707101396 5.476367378460973 10.524548666848649 2 0 0
426 1 -0.1226165300483234 0.2501244700355528 6.239422150041868 10.67949735778733 2 0 0
429 2 0.1197907317639301 2.528748441704246 5.7451862198493515 12.814864623485724 2 0 0
433 2 0.1496059964857095 2.0570949715997022 9.886218938227373 11.405865984693476 2 0 0
421 1 -0.1146514907010329 7.503120490761542 8.341916454499605 11.76818027120361 1 0 0
428 1 -0.2963663334523925 2.466358498521799 8.861757078435604 11.209224420477195 2 0 0
424 1 -0.01668367152658154 0.5064764748240713 7.405316885049457 11.541271185257914 2 0 0
431 1 0.01032976609905814 1.759404293952034 7.795815570172261 12.190727424156798 2 0 0
425 1 -0.3072590821050262 2.812418149438761 6.613901208148295 12.20115400897212 2 0 0
419 2 0.1192942617125683 7.52696865354041 9.221299365702198 12.467453694249619 1 0 0
427 2 0.1359718770436172 3.7884856263350457 6.897126951089811 12.517669374978938 2 0 0
418 2 0.1511898204947232 2.8276911118910157 6.2004799137881506 11.182755864674778 2 0 0
297 2 0.1182862804541829 6.109033216514935 5.565770518712901 13.964183647406397 1 0 0
434 1 -0.00359082399761948 1.6536368472210135 8.288524377041336 13.59561694831769 2 0 0
437 1 -0.1105915776528241 2.6092295507110053 9.253552735889427 14.038322173898546 2 0 0
299 1 -0.1250201949189791 6.181047270660849 5.565849605898682 15.054947589960475 1 0 0
438 1 -0.1182119194922216 0.7020135356948847 7.708302490209055 14.519309721662953 2 0 0
436 2 0.1199522235878258 0.016834843111963857 6.964245510633809 14.165868800052605 2 0 0
420 2 0.1446762277886801 3.545649325651831 8.83831194334456 11.314494379924849 2 0 0
435 2 0.1288654822433485 3.354362848245431 9.699294908952966 13.36607333179314 2 0 0
294 2 0.1357589265304304 1.2370096048511288 4.35081688337269 14.958407425986815 2 0 0
583 2 0.1460947115787198 6.192978483341974 10.928552107003346 10.128666268369937 0 0 0
582 3 -0.4975013890536951 4.174350447556229 11.262944639237649 8.493064277590472 0 0 0
581 1 0.2673148963305673 5.031256345291521 11.782508276183673 7.653586273939357 0 0 0
753 1 -0.09424227270395386 5.571727051896679 17.801426237032974 7.6199959641375745 0 0 0
585 1 -0.1465141045604067 5.286195745747869 11.330105542091909 10.635993601606687 0 0 0
578 1 -0.1517149349696386 6.087615622662952 12.794770300953852 7.909599918657985 0 0 0
580 2 0.1514756433960379 6.177562132364672 13.167372424587228 8.95205740136518 0 0 0
756 1 -0.1703731098024467 5.474012234530542 17.069061061275846 8.830401322656519 0 0 0
754 1 -0.1176058626024203 2.9846207483072265 16.49894128520062 8.575793942673606 0 0 0
589 2 0.1361520911567209 6.364765437589312 11.404608564017735 12.536679234342008 0 0 0
586 2 0.1693651592704834 2.1819175903158796 12.597442217135649 9.866062570557741 0 0 0
584 1 0.2366338835940305 4.13355885542745 11.683044521354129 9.846158085111423 0 0 0
587 1 -0.1250415279740015 3.090486048120143 12.335993554941698 10.434476802386534 0 0 0
588 1 -0.1033109863893624 5.433042113395062 11.596554532574036 12.021962276283487 0 0 0
755 2 0.1561868279752002 1.9521929295156837 16.19265926366975 8.988978227115771 0 0 0
757 1 0.243778868974273 4.218433597946017 16.521777480728293 9.359510453219006 0 0 0
590 1 -0.04717304994925148 3.055679616540901 12.546977500051451 11.92202055124029 0 0 0
760 3 -0.4874698600976546 4.098666310750759 15.822511641274744 10.486842927507842 0 0 0
762 1 0.2413643881991197 4.937329460572562 16.137463368901322 11.52674793813709 0 0 0
593 3 -0.4878254863621023 0.8322761378622472 13.014862771762441 12.431553702171847 0 0 0
592 1 0.3915193275792479 1.967907924997227 12.931349244902252 12.81594832033515 0 0 0
591 1 -0.07597054962371429 4.311671030312867 12.144194773714558 12.709274429008195 0 0 0
767 1 -0.1254302881123948 5.533722317365447 15.208663515213889 12.5061355959562 0 0 0
594 1 0.3901306644897277 4.004460936055256 12.497251346268826 14.168104099604635 0 0 0
595 4 -0.4324697224994782 2.539390242241343 12.980188544472904 14.299113249295358 0 0 0
768 2 0.1676530088325867 5.64383710390814 14.123950910657172 12.313672825795317 0 0 0
597 2 0.1672309632133672 7.9446083548374355 12.714301932303693 14.6908010899434 -1 0 0
596 3 -0.5134016439903251 4.7690277566783195 12.395609767725142 15.091851060101407 0 0 0
778 2 0.1384396632906435 6.396488675172095 14.859371290917025 14.493452369203299 0 0 0
773 1 -0.1024472023184276 6.008730794825741 15.636272487737347 13.779935763376313 0 0 0
761 1 -0.1571564822764402 4.946449687089782 17.515752028067233 11.955647914801334 0 0 0
770 1 -0.01723138697442757 5.93227635743664 16.997359069825624 14.225873197358958 0 0 0
758 2 0.1293170825081277 6.323131528991374 16.96590036549966 9.467609423587627 0 0 0
914 2 0.1415999004640565 1.4695515845616691 17.69697599400616 10.701180333347288 0 0 0
51 2 0.1521438044164941 5.665680337501343 -2.1792998651310986 21.998642613309976 -2 0 0
52 1 0.1645764387495643 0.648453698943536 -0.9493996077996798 22.978587095403938 -1 0 0
187 1 -0.161201712962089 5.814084511459201 -0.8184406116866845 15.411043881573491 0 0 0
191 1 -0.1123810207365269 3.517937106293928 -0.1985954078955694 15.718155219028755 0 0 0
186 2 0.2030142332202536 6.738881097191768 -1.2022261930851146 15.884749579793503 0 0 0
291 2 0.1695842629028737 6.768982317470604 1.4865954394677336 16.218614450122903 1 0 0
287 1 -0.2359151324914905 7.546639877868074 2.0739005402286477 15.811009609397615 1 0 0
281 2 0.1650660821580066 4.673360171133151 3.1872579757043633 15.471126515617577 1 0 0
280 2 0.1435561336772938 0.3732761743691718 1.6220248616146584 15.959309928023231 2 0 0
194 2 0.1685024098106686 2.6278882354817563 0.09970416455713194 16.295570028015323 0 0 0
190 1 0.1743933182591 4.806638759792165 -0.3527015944063794 16.296603644371178 0 0 0
193 4 -0.4764853791611164 5.005423185753976 0.18675010494610422 17.68972968085832 0 0 0
44 3 -0.6049337415316374 3.6010348188425803 -1.7094180748850087 20.042334953452478 -1 0 0
192 3 -0.4617687876108125 6.885451904940638 -1.1268479117407735 18.656232038628126 0 0 0
49 1 -0.1523573140031255 1.29578528502719 -1.5526043808228407 21.87119198715154 -1 0 0
195 1 0.3695981478911935 6.211579453149534 -0.12199354509901372 18.600546558426018 0 0 0
200 2 0.174827177494445 0.11067601835934904 0.6143829752139758 20.730310993634312 1 0 0
198 1 -0.04572888163318899 6.375398158835047 0.9386172734027749 19.63166851755639 0 0 0
197 1 0.3965866429947081 4.359227246516467 1.4950062205260433 18.298106571181076 0 0 0
201 1 -0.06720225406861091 7.358158731051206 1.2423880359611865 20.640908003724928 0 0 0
196 3 -0.468917318709666 3.4929938125624855 2.1722418805127033 17.80779489885149 0 0 0
48 2 0.2389302699683792 2.407183615487417 -1.3551663777365965 21.95446953891133 -1 0 0
289 2 0.3304734005051823 4.1953780992644765 -1.201350150998423 19.365856916788232 2 0 0
199 1 -0.05061204431450481 5.165219103879043 1.9085303863622167 19.4606836020757 0 0 0
204 1 -0.1421687540847631 7.092947229556332 2.3587024291448113 21.47798419906049 0 0 0
206 2 0.1553213579992092 7.877238817887992 2.6400609595357327 22.195495290956714 0 0 0
50 1 -0.09541718385467854 6.746337444257084 -2.0400595945619293 22.025440844824544 -2 0 0
202 1 -0.1153614452570296 5.003595086231852 3.0408949346615524 20.324625949751905 0 0 0
205 1 0.2428618545941087 6.017373161035824 3.3169474493865607 21.316815099012704 0 0 0
203 2 0.1763054156915586 4.1725747857249 3.75432533564139 20.274037265328005 0 0 0
298 2 0.1425988673708873 7.195725141528022 3.579707392303769 17.797582345906758 1 0 0
46 1 0.1795017077465954 0.7311072233588148 -2.3859600479394216 20.831603004323476 -1 0 0
53 1 -0.09786409628048515 7.337774621339354 -1.1832061611781062 22.962574018902423 -2 0 0
303 2 0.1462830324338072 5.215210668490394 7.506206069712119 15.358150799533066 1 0 0
208 3 -0.5113947872591873 6.1651429193032525 4.581561421771836 21.745647357693112 0 0 0
439 1 -0.1248403170992436 2.686348035590648 9.663589257782988 15.393371609640079 2 0 0
296 1 -0.002123414078634898 6.783964428066877 4.482930718848099 15.757733245517933 1 0 0
440 1 -0.1614693024206118 0.6982869776504086 8.217998015104902 15.82387409935476 2 0 0
442 2 0.1491329805856919 -0.01525826189937761 7.8183627621932335 16.50957796162045 2 0 0
301 1 -0.1476427471509084 5.65951696231019 6.659676239058774 15.818795691011868 1 0 0
443 1 0.2530700328520147 1.679912437240327 9.157775688326593 16.34718603741213 2 0 0
444 3 -0.4765239625339366 1.5903019359986266 9.822309161029366 17.510552370228645 2 0 0
300 1 -0.09695243340150675 6.8306378006549915 4.46048649303056 17.217039518434085 1 0 0
304 2 0.1647969645434139 6.47708128647767 5.5716968272277505 19.06649405531034 1 0 0
302 1 -0.1585387272997943 6.380299684234061 5.549326008051727 17.967734811479936 1 0 0
305 1 0.2630502996699381 5.802567626517611 6.690686956096917 17.249432425622764 1 0 0
306 3 -0.5034539334701477 5.328788199538135 7.773730057100064 17.80922208793899 1 0 0
308 1 0.2360492296999699 5.451755135106723 7.974109769601071 19.219392215877342 1 0 0
312 1 -0.062587200246563 6.6101142031824125 8.230868290083903 21.358669747675258 1 0 0
315 1 -0.03362014939172865 5.356616239251406 8.300814773845985 22.023375638052038 1 0 0
307 2 0.1581037953903855 7.6514283304897015 8.07764038456591 19.36126503646825 1 0 0
309 1 -0.1411160783491817 6.655855168080714 8.167710533946597 19.90149203023586 1 0 0
314 1 -0.04441208309632885 4.072618334139791 8.232647710249106 21.219005842529313 1 0 0
311 1 -0.09137435840270985 4.14038809107812 8.00202835688057 19.820318896182624 1 0 0
310 2 0.1974185037726364 3.2027662914540187 7.978785513204317 19.20230978149475 1 0 0
313 2 0.1922267720333558 7.527435147035966 8.3232935008642 21.8954291217605 1 0 0
316 1 0.4070359409893444 2.8537833689026444 8.413339708347358 22.137427152452574 1 0 0
317 3 -0.5005021780472542 1.7352619872256558 8.483707223133301 21.783183221751514 1 0 0
446 1 0.2473114082042057 0.36651969174227933 10.256394721262314 17.947222228402335 2 0 0
445 2 0.1462540754036528 7.2123170464665805 10.113751398078124 16.154364531387905 1 0 0
447 1 -0.1581006193678259 7.260440504893163 10.287614153165054 17.18971853890033 1 0 0
450 1 -0.05110269265680349 5.991441564747476 10.677061101979545 17.727465985003963 1 0 0
451 2 0.1759626318376072 5.117530945033901 10.688184365451407 17.077534711245693 1 0 0
441 2 0.1843663202895707 3.367517627640481 10.425587211879032 15.775470009482337 2 0 0
449 1 -0.1026372087222978 0.29433641037514974 10.856553059011361 19.280973976020434 2 0 0
448 2 0.2278380014471736 1.226377038670961 10.978228106829759 19.843472522580026 2 0 0
216 2 0.1605822908968381 8.030183633262904 6.352785266659106 22.58487900902692 0 0 0
453 1 -0.03714560632094709 5.9192445018763715 11.023155569222228 19.147845412952993 1 0 0
210 1 0.2503697429482259 6.657246306142428 4.734021032069588 22.983035427809615 0 0 0
609 1 0.4322525589890919 3.999373364057929 14.420043130687198 19.35282946105215 0 0 0
612 1 -0.04491644257129235 4.361953667608289 15.033903116489583 20.772638977645812 0 0 0
614 2 0.1882078095219644 6.482746249703864 15.287685286055499 20.763506343209396 0 0 0
777 1 0.01193123386087553 6.303581670419672 17.47862138463005 15.670735582162404 0 0 0
457 4 -0.412607427078689 5.427283933483402 11.901260790637567 21.47135755090561 1 0 0
783 1 -0.1006689643708692 3.9342048140069927 16.98981588253722 16.0482586874084 0 0 0
781 2 0.1576205953939591 4.046562510585352 16.14501429348798 15.389793555383358 0 0 0
606 3 -0.5014896368322889 4.834786860064592 14.318282248188776 18.52252082211697 0 0 0
460 1 0.1887949168413126 4.732289232918356 11.999419058071263 22.820983424246492 1 0 0
613 1 -0.05972167816589029 3.027036701285574 15.237824705439607 21.475604836094128 0 0 0
599 1 -0.1262452585796507 0.3608657853025958 13.020487244743022 15.598201409150569 0 0 0
598 1 0.1790991078877174 1.7607973431595734 13.200067413896484 15.557286470308396 0 0 0
764 2 0.1417725725023119 7.729455324070621 15.722072896610616 16.292421366645414 0 0 0
775 2 0.1691712748187379 6.816846922804001 16.58248943233532 17.669367777993894 0 0 0
459 2 0.2151711069952095 2.7969196424304106 11.611447436046678 21.93369489137702 1 0 0
607 4 -0.4160279584287146 2.5059924037092256 14.226458111976395 19.246688798508234 0 0 0
616 1 -0.1341173226410293 3.1544330611386697 15.714003310428087 22.823934778795106 0 0 0
610 3 -0.4798210197611846 0.7479382689801855 14.671298065380409 20.908312373530997 0 0 0
608 2 0.1926020391297207 7.759394973335471 13.900106989886165 18.782911758031894 -1 0 0
603 2 0.177079736206963 6.661733296970464 13.506875821594807 16.73447440643937 -1 0 0
787 2 0.1547408706121548 1.9012509021965835 16.340312213187516 16.555475065176502 0 0 0
605 1 -0.1190588724521869 0.3007501369075534 13.825522512364273 17.94719861865243 0 0 0
615 1 -0.07094674803929527 5.594005710475408 15.42070175639234 21.30351801624692 0 0 0
769 1 -0.2208342785861879 7.078549865898587 16.534143952869794 16.60472718270499 0 0 0
456 1 0.4115722352154104 4.8383800352704105 11.485037596553195 20.100986280422052 1 0 0
461 1 -0.09918320085819884 3.2851121425130008 11.851366419054527 22.84677735873062 1 0 0
452 1 -0.05983558348875634 7.208150104859655 11.14170959103798 19.92785975106623 1 0 0
454 1 0.4112599804691663 6.95438347910585 11.587369760042666 21.37565565798108 1 0 0
455 3 -0.4700032775988217 7.646489677919103 11.516248203960618 22.325163280535257 1 0 0
611 1 0.4113240598155646 1.8913871228813068 14.652672758469414 20.632220763681055 0 0 0
601 1 -0.132526708482136 2.453912376658091 13.522089695533117 16.80258779519367 0 0 0
458 3 -0.4366041194366582 3.6657092661026267 11.43220408836894 19.886567449944778 1 0 0
785 1 -0.1364442652492076 2.690496610581868 17.091171880423627 16.71849569187316 0 0 0
600 2 0.2356882280918348 3.5760920098291904 13.562754035267787 16.88121003827354 0 0 0
602 1 -0.1042427658883238 7.756230069519716 13.490503879162409 16.734213373584648 -1 0 0
618 1 -0.1549804019483152 5.630401825876143 15.941387190931547 22.633496867346892 0 0 0
604 1 0.1847418439301778 1.734514499929484 13.817468897917767 17.984917842300536 0 0 0
77 1 -0.1593064269044854 4.963883613879688 0.1108187523142492 30.385128550531793 -1 0 0
64 1 -0.1447121319565118 1.8722088104963017 0.7158110671085676 27.85171222567883 -1 0 0
67 1 0.2438336345628718 3.1193456624104363 1.087886759169269 28.419430133120525 -1 0 0
66 1 -0.1544292939164472 4.350726327685189 1.1780174566850588 27.618911975902964 -1 0 0
68 2 0.1396297939723647 5.294360539031716 1.5238977594526282 28.049100237183115 -1 0 0
78 2 0.1514705806902561 5.049193672829652 -0.39893141356147854 29.423466696962755 -1 0 0
61 1 -0.05606768154642305 1.8533707569880415 0.2785963201084565 26.459884776583497 -1 0 0
63 1 -0.08350719190577534 4.318945248359216 0.8878634495640281 26.263962638325008 -1 0 0
70 3 -0.5131468233691509 2.9978937712472598 1.6213664191041444 29.674113428593905 -1 0 0
60 1 -0.05796363563811512 3.1296976371188445 0.2763274413201775 25.66672618061039 -1 0 0
58 3 -0.4762166784021703 7.699118395170292 -0.43579950008713864 25.920884409677452 -2 0 0
59 1 0.3886199887526346 0.7033729808233908 -0.20083911084731376 25.569714886470464 -1 0 0
65 2 0.1547439423280259 0.9761732213530228 0.6357436812850494 28.44167220600593 -1 0 0
72 1 0.2499602377618654 3.9832244772958028 1.207442046564752 30.4793589432875 -1 0 0
62 2 0.1557746319505002 5.200009865945929 0.9732949154623229 25.658736743863827 -1 0 0
223 2 0.1403304705221786 0.3761790012061194 2.537702891605756 27.025738418878465 1 0 0
229 2 0.1184482889504826 7.800696922091335 3.3498525120591633 29.487031818244244 0 0 0
211 2 0.1248010254631768 6.169664821883661 3.337501206156672 26.205255160672092 0 0 0
209 1 -0.1471534226676362 6.052947788727679 3.958737020586778 24.079357288484832 0 0 0
214 1 -0.1041937780625388 6.611764250339136 3.985192402599612 25.361136419268917 0 0 0
57 1 0.3889805216326767 2.864553077263102 -0.07922112544950588 24.204991287699514 -1 0 0
55 4 -0.4308190866866703 1.3052253286959936 -0.2417564766570064 24.142540011574578 -1 0 0
217 1 -0.3025864632388974 0.884779395450839 3.4698111614127454 27.459481202587117 1 0 0