LAMMPS data file via write_data, version 29 Aug 2024, timestep = 100000, units = real

3096 atoms
4 atom types

-0.9185990308550132 46.90859903085787 xlo xhi
69.32194264648342 90.678057353518 ylo yhi
0.9155276864443458 45.07447231355452 zlo zhi
0 0 0 xy xz yz

Masses

1 12.0107
2 1.00794
3 15.999
4 14.0067

Atoms # charge

956 2 0.1761660037040007 0.16526474386403556 73.56136619150239 4.457777600600727 0 0 1
947 1 0.1573441954285332 0.4645823218264702 74.16038973393546 2.3536060379488477 0 0 1
951 1 -0.1478491665913009 -0.13552592164022015 73.44327973569837 3.4512116186566666 0 0 1
952 4 -0.4362152809010412 1.5024759880022103 75.23089380869908 2.5117860731745303 0 0 1
950 3 -0.4417414710407745 2.0059833562817357 75.14077836857821 5.051929074867808 0 0 1
953 1 0.3658275935882395 2.308303444159091 75.40564572128089 3.9174115490139556 0 0 1
2813 2 0.2078917501539045 4.529685980831734 70.90725532500757 8.456277772081247 1 1 0
493 1 -0.2941747253803639 2.373388109031778 72.09805961154915 1.2637425902796988 0 0 1
488 2 0.1481730579896765 1.8830036975814832 72.1850075203336 2.3365421956807015 0 0 1
855 2 0.1714212286594236 3.395135472019148 76.29277791697268 10.584147031369879 0 0 0
2821 4 -0.4183972150252656 3.479065521366503 70.6377306277965 11.129267804057262 1 1 0
2827 1 0.3884028165553886 2.218264212105251 70.50190655853491 10.040339698028554 1 1 0
2826 3 -0.4345753886239991 2.254828442916567 70.64014535070815 8.865462261674388 1 1 0
530 2 0.1937246397534308 4.659154250748835 73.54204571582605 10.726456616799176 0 0 1
503 1 -0.01360371223215384 4.782119244372913 71.75744927201438 2.0409253218113586 0 0 1
524 3 -0.4616582836483892 5.381118559655173 74.31404860599889 8.427831863737474 0 0 1
507 1 -0.09921458696367544 5.379402745396251 72.9653673298927 1.4778767785583775 0 0 1
504 2 0.1351096393730306 4.737928081676567 70.42219212694793 3.885122170001889 0 0 1
2819 1 -0.03418061531432148 1.165566995438391 69.84667441828505 10.94248967867163 1 1 0
2843 1 0.1902867630566653 4.8599438676446525 70.76393179200795 10.653290542466786 1 1 0
2842 1 -0.07888054839748769 5.328443171907976 70.87569105994483 9.276379540090218 1 1 0
506 1 -0.1010088908604086 5.2218477288973455 71.30158190255943 3.3509611741557075 0 0 1
511 2 0.1644817036058626 6.972119498882346 74.42078573708305 1.6859259976049787 0 0 1
517 2 0.1813076693907748 6.326166149182772 73.81540543249947 5.723239225764248 0 0 1
518 1 -0.1470979446803911 7.308349884287512 73.73192333706159 6.074986683427624 0 0 1
512 1 0.2574014273317793 7.009615555988818 73.04919557416271 3.3722899991325246 0 0 1
508 1 -0.1545779809845084 6.308970712825988 71.93930754412709 3.9875460684615005 0 0 1
509 1 -0.1296139480747943 6.440825548223635 73.59309758506683 2.142544504707371 0 0 1
521 1 -0.0544050058690772 7.535352191698561 73.90004184726885 7.466219322154534 0 0 1
515 1 0.2575184965942814 8.426510530576538 73.62584560450385 5.157624215896375 0 0 1
523 1 0.3999015313620152 6.539891909151315 74.18264696774466 8.59284243565161 0 0 1
525 1 0.3729444371969204 8.832253238223613 73.9301909551389 9.585421507419523 0 0 1
522 1 -0.03988533148260437 8.933074082832508 73.87538182319524 8.057877891904031 0 0 1
513 3 -0.4915575733737992 8.174774025060147 73.51788005198313 3.8342800428048993 0 0 1
2841 1 -0.1511228487545462 6.673329775147544 70.88084549884249 8.859925680802014 1 1 0
2840 2 0.1476341784430912 6.858332194586203 70.96307011514321 7.818903559661289 1 1 0
2844 3 -0.4775681625945326 9.062899989695607 70.78455703034754 9.606060770452151 1 1 0
2849 1 0.2702921590345723 7.7464908187016555 70.78343938871015 9.828689532253945 1 1 0
526 4 -0.4386617939299912 7.307230718758179 74.14306350021126 9.955356356075619 0 0 1
510 2 0.1477559894851593 6.769465400369039 71.503675023264 4.88286129708043 0 0 1
527 3 -0.4161606502637138 9.820909596818241 73.58012710464028 10.177540776347772 0 0 1
2848 2 0.1691914870302006 8.136955922161178 70.62672509973166 11.914439602643563 1 1 0
2847 1 -0.1336626080086337 7.335436966358911 70.71722722835419 11.194005563336628 1 1 0
2845 1 -0.1065240982689965 5.955085026271543 70.72378239771605 11.585700882844993 1 1 0
528 1 0.1901441504218445 6.696654131692633 73.96029553323066 11.293535898644755 0 0 1
2832 1 0.2413229321628788 9.611338907034117 70.29167108260918 8.442586395159132 1 1 0
516 1 -0.1529438005503249 9.750682999995332 73.51148396377066 5.7660694320319505 0 0 1
519 1 -0.09372711952245197 10.027379998080136 73.70234992406901 7.136645595016375 0 0 1
514 2 0.1481205201865931 10.654804153027799 73.38152206055653 5.121548880362287 0 0 1
489 2 0.1350378754958901 2.3126548490838874 69.3992748108794 1.3631829034430403 0 0 1
957 1 -0.03671547063578474 3.6508687468446945 75.96350525045827 3.5638052121465607 0 0 1
955 1 0.3958324351475837 2.4817291928490217 75.71747900235569 1.4508645653934433 0 0 1
2818 1 -0.1015540562702469 -0.16011691474405576 69.42550232242951 10.58361117533895 1 1 0
959 2 0.1764607723977058 4.6575644214768515 76.01661482040102 5.494044423157782 0 0 1
960 1 -0.1454822756083009 4.784840555569344 76.26397115363096 4.4108585403519545 0 0 1
2825 2 0.1437304585323062 -0.5004602127268332 69.6121698204512 9.562672568493506 1 1 0
958 1 -0.06468937027258857 3.7417908900402432 76.2235400879882 2.069099771568119 0 0 1
495 1 -0.3161860989053292 3.270821672805744 69.74198118316153 1.7744326284699463 0 0 1
2831 1 -0.1648348275094592 8.895497716912198 69.54546195391859 7.449261546842878 1 1 0
532 1 -0.1144733823422218 5.338828132460332 73.57636894327405 11.5393068579634 0 0 1
501 1 0.01233711595474471 3.6657138970176346 71.15631789131508 1.2743090514781859 0 0 1
837 2 0.1618828552510783 9.171897285651184 75.89972027765253 6.18098581046986 0 0 0
945 1 -0.1528929796294908 0.058113252965784956 73.8187990202161 1.0100620639519557 0 0 1
2851 2 0.1500991655826212 7.818713630215122 69.50590453725141 7.407965365956071 1 1 0
500 2 0.1226585402439294 3.1202617677747266 69.74234076722914 2.906707661037833 0 0 1
520 2 0.150066529131863 11.031221317937852 73.62058908958885 7.445296104361212 0 0 1
853 1 -0.1269768529089048 4.278277342954628 76.69086712837321 11.090276297600937 0 0 0
1879 2 0.2174477208285041 10.647984951975777 82.95307054790108 9.538714674913972 1 0 0
1753 1 -0.1442962590872418 9.50680980655188 78.56840280236503 1.3085451827939791 1 0 0
1356 1 0.1908185617934876 0.9620164540056451 80.27210151846032 11.371019457850737 0 0 1
832 2 0.1626406507162294 9.244901523241106 76.49906027992485 10.931735629501082 0 0 0
1338 2 0.1552319570576416 0.4242904676359922 78.8663238801086 4.797482465127933 0 0 1
1343 1 0.2330199357429566 0.4280177590286782 81.3980627808348 5.091364666938538 0 0 1
2131 2 0.1511676906896328 1.6840049969104953 79.84511973956384 1.7385856430302633 1 0 0
2047 2 0.1588779892286015 3.3754719268587534 78.80200423436615 3.2619073634175306 1 0 0
2111 1 -0.1579570541145645 2.5897355782106004 80.40771033856694 2.0398160870616038 1 0 0
2116 1 -0.1399159207795511 3.565410143840766 79.81054099271302 2.878829823435895 1 0 0
2113 1 -0.1331614451306041 3.9834480837904804 82.37970318721442 1.7189685542640372 1 0 0
1342 2 0.1710399673961754 2.289071953000861 81.92768682670176 4.238810472420884 0 0 1
1344 1 -0.1451944449684966 1.8534825451034829 81.6250791472326 5.211677670164245 0 0 1
1348 2 0.1657996238986847 3.642679535191408 81.5942166822067 6.414596460378724 0 0 1
1347 1 -0.06828945237232922 2.5679222043947583 81.43295041585381 6.399630931882878 0 0 1
1353 1 0.3934761785227772 2.3001018358228107 80.90703655512972 9.070169522334886 0 0 1
1350 1 -0.04939265863087602 1.859023257717436 81.07618945095629 7.6167874721526765 0 0 1
1349 1 -0.05095478035013015 0.3591675329934061 80.9182664463302 7.523646007581634 0 0 1
1355 3 -0.4864150033606039 3.452625070159029 80.94134216905867 9.3525698470897 0 0 1
1354 4 -0.4324128462889075 1.0013339359513336 80.66744419859225 9.969067473674386 0 0 1
2112 1 0.2099323499354973 2.71563291231511 81.70358277849702 1.4518598029041196 1 0 0
1351 1 0.389901671116291 -0.15262629546922146 80.58030651633236 8.896064268800394 0 0 1
2287 2 0.1867702002938783 -0.2561670728403085 83.17787084870784 9.045679340750977 1 0 1
1346 1 -0.1190696989541098 -0.3289521015826896 81.13272747990135 6.269485310637375 0 0 1
1341 3 -0.4998931074740354 -0.24479390440704396 81.31126087918672 3.877345580735139 0 0 1
2115 1 0.2286708224454629 4.675432019956249 80.58564164092401 3.368573772352381 1 0 0
961 1 -0.09147448444112305 4.915455863262236 76.9735933381291 1.5637858949760752 0 0 1
2114 1 -0.1574074469788291 4.845163338591018 81.87776947597366 2.7244674637506403 1 0 0
829 2 0.1704274638038417 5.459423631469523 78.29941184102393 6.013259923023737 0 0 0
2109 3 -0.528047843781786 5.227142842595983 80.30301674310776 4.578198065833005 1 0 0
833 2 0.1377533871422526 5.704848726107523 78.81803271850268 8.291962124096845 0 0 0
2024 4 -0.4293133342625468 10.837291088279683 80.73105467029325 5.378128022115163 0 0 0
849 2 0.1646481917829575 5.371923171976313 76.8941293755016 9.229926209932378 0 0 0
851 1 -0.08422945182751657 5.390533484374274 77.05639125037968 10.333541841294137 0 0 0
965 3 -0.4906488606504052 7.229457315301714 76.79325622371181 4.504786840055411 0 0 1
836 1 -0.1260350951981012 8.415487499045268 76.56909102731697 6.615946910937052 0 0 0
844 2 0.1314932193018195 9.546732904468739 76.52770008919471 8.480478352728621 0 0 0
963 1 0.2587216418029533 6.02164531478852 76.77738653583863 3.906375617138894 0 0 1
841 2 0.1266521933703686 10.016827106418114 78.06115472089579 10.240682319573404 0 0 0
848 1 0.003186883537518571 6.56706590791904 77.64771725232428 10.988501360669327 0 0 0
2110 2 0.1592318440822077 5.8047726692588135 82.3723370030097 2.9491217209842002 1 0 0
964 1 -0.1222388954251395 5.980884423131438 77.20173616437927 2.497173709218157 0 0 1
1870 2 0.1995863997671291 5.636500511971275 82.04534458127118 10.410233342667459 1 0 0
966 2 0.1669273939603925 6.884375955037426 77.74445139936223 2.024985012093043 0 0 1
831 1 0.2663707420160581 7.267138186437013 77.04007574748276 5.815397784031492 0 0 0
840 1 -0.09678875122976316 8.611114837435691 76.93241456948458 7.960949794015476 0 0 0
830 1 -0.1530048702642962 6.338931090095885 77.9067522943112 6.492078444153009 0 0 0
835 1 -0.1203117368874149 6.499508288037408 78.19682537799663 7.8752490127650345 0 0 0
838 1 -0.003172575484090685 7.609102130810477 77.74664158143929 8.697765878629653 0 0 0
2055 1 -0.09851081777428207 8.403947718997731 80.95480599037879 6.290723374211887 1 0 0
2135 1 0.1872205443864012 9.3888981182988 80.83037463806093 5.220706351338863 1 0 0
2133 1 -0.09236963450737441 8.874979342205867 80.72509410178264 3.8757379818530047 1 0 0
2108 1 0.2574230572949745 6.500800607888632 80.64484578027603 4.670051921796455 1 0 0
2132 1 -0.160284425232296 7.478616532368839 80.62355037506285 3.6438741487942696 1 0 0
2117 2 0.2040318952234711 9.55634126167824 80.69871160378679 3.045046923443431 1 0 0
2086 1 -0.123924139189442 7.010634576797723 80.8180476684988 6.061811145870511 1 0 0
2118 2 0.1831879355012148 8.641014856996382 81.06985241294666 7.315105440214522 1 0 0
2119 2 0.1591048076806481 6.320032752895326 80.96764557730785 6.87352056187671 1 0 0
2134 2 0.1681245473804104 7.0995304016602905 80.53025895651504 2.6002648753697866 1 0 0
842 1 -0.2992080002394424 7.821992570185007 79.70110992272703 10.202670084711562 0 0 0
845 1 0.0193921316403444 7.747511674180123 78.10060774008305 10.135039138173768 0 0 0
846 2 0.1538427666450487 8.620705769146493 80.16297497258769 9.555413249088978 0 0 0
839 1 -0.2976463786793438 9.115020011032842 77.62052197106311 10.742215161387257 0 0 0
847 2 0.1587969827939363 6.900665532139445 80.18106517251432 9.889626459035071 0 0 0
843 2 0.1187097283197186 9.302474202945964 78.05820997292999 11.791619212742969 0 0 0
1336 1 -0.1554256618190597 -0.45653497508555135 78.9041335667739 4.139218619286055 0 0 1
834 2 0.1420290178246887 7.979873107327533 80.05534793214487 11.240336416467635 0 0 0
1770 2 0.161187125919378 8.98102289145746 77.94506051603481 2.03274331802025 1 0 0
1357 2 0.2352721151115696 3.1413476667180777 80.19394551365964 11.616562407402121 0 0 1
1869 3 -0.489930689495455 8.14038891382057 83.07271248961817 10.33682490874142 1 0 0
1846 1 -0.1247648559371306 10.539567235416843 83.20085601612955 10.584713586152152 1 0 0
2272 1 0.007788708085559084 10.960483872134702 83.47298310252127 1.0066273847249718 0 0 1
1868 1 0.2388956884657426 9.227603107657492 83.41577944531764 11.121729958660561 1 0 0
1340 1 0.2536915598379648 -0.8773029325083382 80.1866112960569 3.581910299609697 0 0 1
1754 1 -0.1108108276507808 10.914817258254546 78.42547818334155 1.267445822282246 1 0 0
2130 2 0.1826676617493594 4.221450544035077 83.34319314337111 1.2476254484481033 1 0 0
2267 2 0.169070173652165 10.441104856945884 83.48107246520676 5.703961458935933 0 0 1
1890 2 0.1836625788643955 3.589374424856996 83.21679260040136 11.060274455017865 1 0 0
1874 1 -0.1209924178995681 5.718955446995399 83.07908960695907 10.63382089393573 1 0 0
1332 2 0.1427618648682438 -0.8773499734264547 76.84458248053971 4.3204302978015825 0 0 1
2128 2 0.1668756679552513 -0.8600152688810644 83.35256231771675 0.927600850376731 1 0 0
1885 1 -0.09683189271359782 0.318048752569698 84.09129896790915 11.688433573799546 1 0 0
116 2 0.1712190230320602 -0.040086644074413647 89.69735344354558 1.066827448806933 0 -1 1
1807 2 0.179985202440951 8.054882006151338 85.63722299462265 10.51850842262106 1 0 0
2550 2 0.1517743502279652 10.777625297229276 89.5279708179626 9.9979474366211 0 0 0
2497 1 -0.01252590107334758 -0.7576279006134581 87.14275784109518 9.314821340963853 0 0 0
1872 1 0.2209986872621074 4.638756715112845 85.1302616353027 11.281875956020455 1 0 0
2354 1 -0.1809418968957457 -0.4129098429930591 85.02993344301572 6.059344584215067 1 0 1
498 2 0.1510203157070278 4.099074793724262 90.43507102757752 1.526390100264084 0 -1 1
2508 2 0.150542962860536 -0.3365302295965976 87.41836872967599 11.4336949362303 0 0 0
2449 2 0.1476467747331275 1.9826696583818348 86.79925649617354 1.4714829152100586 1 0 0
2269 3 -0.4614998882988782 5.787765785479655 85.20862411179115 2.64001468603236 0 0 1
2260 1 -0.04896218288696677 8.65328029357745 84.26326374443578 4.555377812209316 0 0 1
2542 1 0.1509083483890107 6.697195534675769 88.59893584601227 8.738382751863021 0 0 0
121 2 0.125256228035576 -0.3185942363091444 90.13643750468225 3.4512251799279468 0 -1 1
2521 2 0.114323227200642 -0.17506347816550805 87.62141436936363 6.626296815827572 0 0 0
2466 3 -0.4612397635332622 6.4407908122796185 87.99620077392733 1.1008552118427037 1 0 0
2544 1 -0.1241313857102971 7.384664467273604 87.87975925865963 7.725952278815195 0 0 0
2767 2 0.1555580035123909 8.919257857334209 89.65075576338455 5.688706629447866 1 0 0
2375 1 0.1830099525915466 5.152360471541235 85.22759894300651 5.787367207283829 1 0 1
2835 1 0.2702925043616725 10.966378361301592 90.40813633272722 6.167286480131074 1 0 0
2443 1 -0.03503023419137205 -0.18566280181686368 86.45102523878404 1.126163772480745 1 0 0
1886 2 0.1829190790286107 -0.4760918265454353 84.15316456763603 10.928997835313542 1 0 0
2258 1 -0.1168426847494318 10.801536157787753 83.62828098956994 3.557893003342013 0 0 1
2543 3 -0.4854820859794631 10.57709761977662 86.85388837850343 9.185253669052544 0 0 0
2295 1 -0.09986795395900472 4.910058121666099 85.46393260042893 7.179617633813201 1 0 1
1873 1 -0.143565807930858 4.526040695029772 83.70361604122229 11.027712281539834 1 0 0
2451 1 0.3898348430754746 -0.8076920186007094 86.86960928855859 2.459962072553566 1 0 0
2374 2 0.1522106812103436 1.7990873240703804 84.62368937108381 5.097321067477324 1 0 1
1888 2 0.170965562555026 1.5290378321790188 85.4399343933649 10.37333303925635 1 0 0
2355 1 0.2532369312597639 0.20348812633529434 84.39749070300485 7.218997212583859 1 0 1
2450 3 -0.504383055405479 -0.1363130121583387 87.36798101207461 3.3454276157953933 1 0 0
2485 1 -0.1053082970443104 9.526503104831 87.45387080161065 1.3295183493141525 1 0 0
2350 2 0.1515385677811873 0.1675771023059145 85.71641161007045 5.468796927885826 1 0 1
2513 1 -0.1136079505225002 0.6713373373956639 87.82168690452855 7.2588416000113645 0 0 0
2512 1 -0.005663353048587123 0.4760957294247623 87.70880615996856 8.70719708191448 0 0 0
2349 3 -0.5183874011749978 1.3766864957884795 84.61361964381123 7.834731805554288 1 0 1
2372 1 -0.1464751855856719 2.6524406470154283 84.78709088826857 5.758423868340444 1 0 1
2357 2 0.1897154386712351 4.076105450895433 84.68019952932397 4.083589846253295 1 0 1
2373 1 -0.1117901395090009 3.925132016633068 84.89610145905397 5.121106866020206 1 0 1
2348 1 0.2670675760031294 2.4740583977105626 85.03339699268254 7.179847897151987 1 0 1
2326 1 -0.1387051681920045 3.668524556014165 85.40762349971189 7.875772091719 1 0 1
2359 2 0.1648503185552795 3.6556748867660813 85.51720829102673 8.977450346849105 1 0 1
2517 1 -0.03658190002056164 2.874436595971657 88.4393718208433 9.067539143152155 0 0 0
2522 2 0.1557519986227864 2.035267430586531 88.33012797423454 5.6556797853692595 0 0 0
2515 1 -0.03654604373903898 3.041793238092386 88.59202518846915 7.5600475273956675 0 0 0
2514 1 -0.07992231629852931 1.9248222083186768 88.33187749998469 6.692960193478664 0 0 0
2523 2 0.1471865061272419 1.3856263668120468 88.04297873419365 10.676734762344209 0 0 0
2525 1 0.3916697977630845 4.191682061985373 88.75515201254335 9.728894887986 0 0 0
2516 1 -0.08583312744473016 1.5841551643816336 88.08670837340921 9.569237867733197 0 0 0
2518 1 0.3969076125251103 4.50352996071605 88.88907065606352 7.256318590958809 0 0 0
2520 3 -0.4617131419647936 4.9550482010695935 89.16609261072209 6.191957561776408 0 0 0
2524 3 -0.449042933417483 4.421998317813325 89.01853357991378 10.871147854001714 0 0 0
2519 4 -0.418436396740631 5.259815065013448 89.02810308273767 8.584624034956988 0 0 0
2547 2 0.1661955801438111 9.197228004431446 86.90120855829035 6.963320624888983 0 0 0
2540 1 -0.1132699911295901 7.4524038013466445 88.75599192980214 9.952505633264042 0 0 0
2836 1 -0.1368012016752036 9.539474869604893 90.23769947218443 6.367517706889224 1 0 0
2545 2 0.1819816742911984 6.997270286795652 87.7540411191751 6.707885224310233 0 0 0
2257 1 -0.0004965257161329839 10.167522767689322 83.81897657019314 2.2387727133916697 0 0 1
2270 1 0.3987416169651594 6.589975749806815 85.09826967707662 3.50811960496063 0 0 1
2486 2 0.1888008704419403 8.683967516000552 87.84445521794439 1.9639716409536443 1 0 0
2271 3 -0.4294845931322654 7.800375156077255 84.27900879119423 6.868249808348997 0 0 1
1875 1 0.2584545429260707 7.0051407142692375 83.73875097844125 10.541011451188243 1 0 0
2263 1 0.3625505422571983 7.749878871296358 84.64847825628145 5.7360657702959195 0 0 1
1876 1 -0.1402870303084576 7.084491855311727 85.18029024087986 10.643720577400359 1 0 0
2548 1 0.2278449818301294 9.40899940119457 87.58588210704858 9.06263475712185 0 0 0
2262 1 -0.04651924489156623 8.017693036687211 84.51281633353418 3.2379340274929924 0 0 1
2268 2 0.1558617474498822 8.326751516141927 84.32612789789272 1.07390345036853 0 0 1
2358 2 0.1800956686256839 5.7961906495634725 85.80263320981398 7.791121876400305 1 0 1
2261 1 -0.1006806225685998 8.781173996335985 84.21129957567733 2.0656934069049084 0 0 1
2539 1 -0.1586181593713448 8.769771070089405 88.3105744895503 10.156924561136108 0 0 0
2538 2 0.1693022498498483 9.209178438086877 88.48492785754229 11.106654733845236 0 0 0
2557 2 0.194475342086218 6.862090925281708 89.28091138366743 10.680422633815382 0 0 0
2546 1 -0.1186889501014102 8.717317179180514 87.39189385507497 7.839735489403896 0 0 0
1871 1 -0.1266078830072644 5.924564583131904 85.8371956033123 11.15040603185535 1 0 0
2264 4 -0.4307922286748619 6.446927507477081 85.2579960621151 5.046867869098804 0 0 1
1887 1 -0.1602439551107372 1.4270725790621217 84.93041602438088 11.325593776577843 1 0 0
2259 1 -0.08412600202473391 10.035354796143727 83.8015758333589 4.708025942598404 0 0 1
1884 3 -0.506808220817907 3.6105461697431185 85.8489173416834 11.81968376574136 1 0 0
2487 1 -0.1492876623995315 10.858614171265586 87.58831690659582 1.8254335478381578 1 0 0
1891 2 0.1847798796864313 5.967699024368523 86.91235054115336 11.475257011571601 1 0 0
2356 1 -0.1085429764641574 -0.6596820794864454 83.57087589137844 8.073196010666832 1 0 1
53 1 -0.09571192210793433 1.7365329765929824 71.81669213296139 20.965771616895466 0 0 0
872 3 -0.4657431038854789 2.8180992935018265 75.0357818963509 19.766503125225164 0 0 0
50 1 -0.06241857368657266 1.475398601689864 72.14603940213796 19.58071369439353 0 0 0
47 1 -0.1008464763187994 0.14138454657190613 72.0720192269428 19.067322752024094 0 0 0
51 2 0.1620283848471576 2.2985495377863856 72.28043887702907 18.917396762770796 0 0 0
52 1 0.1962228791387265 0.6682492013165837 71.57816238481288 21.882549572608426 0 0 0
56 2 0.1970527435474979 2.786296483123006 71.73493433385131 21.30775069385106 0 0 0
865 2 0.13881663809369 4.881322609309253 75.49450794091825 17.53820734838591 0 0 0
2871 3 -0.4650469646918122 1.496626796259421 69.36704955497329 17.272335449175074 0 1 0
2822 3 -0.5117744553495578 3.710658491094798 70.18412305905909 13.544101882020588 1 1 0
535 2 0.1613423329739918 3.834044317780692 72.77872823609206 12.95525570051689 0 0 1
876 2 0.232480357379009 0.9110115801831091 75.22931951284096 21.58571148942831 0 0 0
45 2 0.2081334546161317 -0.07594336439589067 72.24633890973136 18.005295374558035 0 0 0
864 1 -0.07583943658078249 3.9887406034674964 75.74077253461871 16.929402579277088 0 0 0
861 1 -0.1549150588071173 4.193281505698058 75.90145244585011 15.532424901263116 0 0 0
859 2 0.1439202882075983 5.23845062469403 75.8067488881637 15.093575293896732 0 0 0
860 1 0.2498447274539548 3.0965097619688473 76.19578329480422 14.601671526647495 0 0 0
870 1 0.3871004806573716 2.148731845022702 75.5296137243428 18.884831977632494 0 0 0
867 1 -0.04767800802062258 2.634302849406627 75.78526907592077 17.451147605978424 0 0 0
871 4 -0.418146675913104 0.6247032317584438 75.81219715253339 18.873583511394237 0 0 0
866 1 -0.03325576233433478 1.5331690155615463 76.17061782852001 16.52557231052237 0 0 0
868 1 0.4006696286944653 0.25471076526518455 76.20387929151345 17.400595923355137 0 0 0
863 1 -0.1244561142591366 1.8015413133820877 76.38131102401748 15.129200442059227 0 0 0
534 1 -0.07930622578500357 4.873619437145073 73.10512899664262 12.797733646189572 0 0 1
2867 2 0.2016754265722837 3.8906103930881883 69.9503756696728 15.7269731808219 0 1 0
542 2 0.1653587810406932 5.4281542200525665 72.66837332042485 14.835615776424488 0 0 1
541 1 0.4078008646557145 9.251572194209926 74.66133057391691 14.99008919625761 0 0 1
537 1 -0.1406500892440974 5.78111036615949 73.13473724500366 13.918637012925043 0 0 1
533 1 0.183354126506638 7.0940615310187916 73.58518720921303 13.783850794772748 0 0 1
538 4 -0.4530756354027305 8.055206881811165 73.6623732481106 14.919708603037614 0 0 1
539 1 0.3786729334008294 7.96272801046541 72.96465161526092 16.348755245220197 0 0 1
536 3 -0.4835712812080087 7.229058175116409 72.15684026882644 16.82170318652672 0 0 1
545 2 0.1699915509242946 8.589964987736947 73.00963879343735 19.357171567807384 0 0 1
543 1 -0.05954119025532316 8.927587866383035 73.73806514165501 17.223575025060725 0 0 1
546 1 -0.1170508132799453 9.277313130157852 73.50668134031835 18.616601330186267 0 0 1
1258 2 0.1336170297566527 7.6135480472553425 75.60541143937267 20.066515664415775 0 0 0
540 3 -0.4931766083627277 9.52561889709136 75.48230518484269 14.193360597463688 0 0 1
544 1 -0.05842831425788875 9.81823467239844 74.64643919540418 16.407186880216663 0 0 1
1248 2 0.146156216199504 6.15582687184673 74.49490258279687 21.34826249541796 0 0 0
531 1 -0.1318133853837272 7.478833470236319 74.09771482168819 12.486713146977499 0 0 1
2859 1 -0.08000953461337437 4.535234119225996 69.62387831121242 16.538051544037444 0 1 0
2866 2 0.1523438301200501 6.339017192963581 69.89661263257484 15.57724487162884 0 1 0
2858 1 -0.06483424740591989 5.944309625928568 69.5165623763775 16.52734471572747 0 1 0
529 2 0.2225335566553976 8.557577183327039 74.37912097561598 12.40576922840602 0 0 1
1104 2 0.1783383807509595 10.225706083406891 71.21874448981718 16.955375163705718 0 0 1
877 1 -0.1320433261326219 -0.10108915403355401 75.00109559124938 21.246527190080034 0 0 0
1259 1 0.01190739945765117 6.482273172934263 76.29701262578125 22.552329177749638 0 0 0
1256 1 -0.3088481186934052 6.809124024188578 74.81714531340295 22.190644250520716 0 0 0
2817 1 -0.04501928818903937 1.6208732741751608 69.75186895869174 12.387370973352706 1 1 0
549 1 0.2658507988548604 10.37502331542713 74.2640736065408 19.18131920594335 0 0 1
874 1 0.1774279248450412 -0.4023266486122058 75.33688703794809 19.87902028889339 0 0 0
2820 1 0.4236955033776695 3.070768007067664 70.20644855490787 12.536468949899614 1 1 0
858 3 -0.5088269865001356 3.2805039647031498 76.34734787738232 13.225678610294331 0 0 0
551 3 -0.513397353043628 10.499503534766927 74.19528262967539 20.513501242048953 0 0 1
2846 2 0.1907219812333292 5.752337724827253 70.54764566211908 12.610367094494698 1 1 0
1260 2 0.1516643537666757 7.915887503453863 74.68846533604759 21.961871239566648 0 0 0
49 1 -0.1297445441039838 -0.6240509068307254 71.44908585863413 21.24181381369964 0 0 0
2881 2 0.1440619618233242 8.221637853882658 69.36237551847316 15.287603093423693 0 1 0
547 1 -0.08249110886496429 10.942146696042741 75.34337221304924 16.985632467166294 0 0 1
1257 2 0.1711920267222512 4.513455244040353 76.48777407274235 21.560384345702477 0 0 0
862 2 0.1729599162342965 0.9201480309556167 76.48895164488513 14.461457670716005 0 0 0
1253 1 -0.3009353683250459 4.882134765335822 76.51922767954112 22.576885179040215 0 0 0
1254 1 -0.1114597586043037 7.585111327679126 76.64373164148954 20.2362843043806 0 0 0
1251 2 0.1493264111303058 8.413932935662265 77.14673799223094 18.37744894612127 0 0 0
1973 2 0.2003935596469781 -0.10875041071986336 82.14162738497511 22.01029876836966 1 0 0
857 1 0.2875416063245589 4.316460859082932 76.79028900362326 12.555171143454267 0 0 0
1364 3 -0.4267070266881693 2.962705616878003 79.60254565053577 16.683987743312315 0 0 1
1370 2 0.2083529356770676 1.046515199297573 79.19702816677672 15.24131978666763 0 0 1
1365 1 -0.1000400974033778 1.0320031793837032 79.50136275001907 14.206349306506945 0 0 1
1361 1 0.1874954088629618 2.22815155198022 79.7681382914132 13.531280007683726 0 0 1
1367 1 0.3867926362326634 3.782002309883696 79.58827516631122 15.827132067189332 0 0 1
1366 4 -0.42384451442725 3.5475336666633757 79.87442816194829 14.302731765958434 0 0 1
1362 1 -0.07928838505349342 -0.2104574290549921 79.50717877627224 13.478008068797743 0 0 1
1853 2 0.1930278959998503 1.4954528825448796 83.01393747124042 14.714015681940781 1 0 0
856 2 0.1509441466707344 5.451733862957894 77.5709820008181 14.350529306500924 0 0 0
854 1 -0.1377679859262504 5.473630242733619 77.39225360124325 13.24025853845728 0 0 0
1862 3 -0.4515528972414615 -0.5275971837997595 81.91785575926276 15.609617062760591 1 0 0
1252 1 -0.006389993144841483 7.053643404443144 77.14729524307495 21.49582397303637 0 0 0
1250 1 -0.1512350810581752 8.025450503602883 77.59081889314464 19.268912562972744 0 0 0
1369 1 0.4108229372961247 4.903110897050583 80.34714573273406 13.76656282683348 0 0 1
1371 1 -0.04645147560445347 5.269254509844387 79.66932357921635 16.14538522383473 0 0 1
1368 3 -0.4905347511769909 5.150183925061603 80.67943246872755 12.667961558904512 0 0 1
1247 2 0.1254600911777409 6.578736275918088 78.90279797928517 22.459352489155552 0 0 0
1373 2 0.1672711695244553 5.664924437883353 79.21205468010638 18.21126423623389 0 0 1
1372 1 -0.06483492807878977 5.903558531435318 80.29617098823013 14.934628448736717 0 0 1
1243 2 0.1469833138239047 7.457406267095346 80.61032710399795 20.798645281164916 0 0 0
1249 1 -0.1257925295561643 7.014566069838819 78.58577250143237 21.609546377925845 0 0 0
1374 1 -0.1484122884146599 6.1336542806327214 79.48153782318255 17.29297388093332 0 0 1
852 1 -0.0845563688540121 6.550339890704259 77.84083189036495 12.40893033961964 0 0 0
850 2 0.1292468126599134 7.3892967873632145 78.28697269314982 12.958272896776972 0 0 0
1377 1 0.282044432609427 7.49091000848628 79.99430212028733 17.297721590708015 0 0 1
1379 3 -0.4912469223826401 8.316940533902702 79.86425069103555 18.28830838910564 0 0 1
1245 1 0.2244746748888592 8.002708192040398 79.01356878020505 19.402791500009865 0 0 0
1375 1 -0.09336758148322742 7.329119181135365 80.62886308913656 14.873410496673058 0 0 1
1378 1 -0.1262201444176489 8.07743668883187 80.4897300456746 16.041534695225835 0 0 1
1380 2 0.1828732561276406 9.122181948575301 80.82952126622766 16.080648669958332 0 0 1
1376 2 0.1370706919371761 7.704493355862452 81.10248836902599 13.953677869792415 0 0 1
1244 1 -0.1453039000834963 7.51965045265246 79.5058499088841 20.65320677067308 0 0 0
1586 2 0.2022845652597788 -0.5279065739719566 79.56115863749415 19.39994793842712 1 0 0
1588 3 -0.4792846191943806 -0.5012274316368199 78.75734595775887 21.862962017625406 1 0 0
869 3 -0.4521212304686161 -0.7777292358742428 76.59147178491924 16.980366462241793 0 0 0
415 2 0.1507711023043532 10.379540031025027 76.8700305278792 20.0967294017982 0 0 0
1359 1 -0.1340868034010683 2.186259169550376 80.09732590186275 12.153499571221316 0 0 1
1360 1 -0.1014769385838923 -0.20550359020307352 79.8777207014719 12.12777598288218 0 0 1
1883 1 0.1908492036412494 0.26128529707455095 83.37993369604693 12.904317081855897 1 0 0
1882 1 -0.1033575032157839 1.4325246506080287 83.54706078883672 13.760858093773383 1 0 0
2816 1 -0.0660942126624693 0.7598903357022131 90.44856420394368 13.358568082837827 1 0 0
2863 1 0.387218655701868 2.38717702958097 90.42102716046345 17.999526972287157 0 0 0
2958 2 0.1899853891000382 -0.24054406068348 89.82520786554284 18.57613991743245 1 0 0
2882 2 0.1415647868134516 10.598953220587523 90.36850446001691 14.877347331123442 0 0 0
2860 1 -0.05089362836665405 3.9061814968902056 90.52652562723813 17.74992948074134 0 0 0
1894 2 0.1501426323591301 8.25251395895019 84.0026504293005 13.04030494235768 1 0 0