LAMMPS data file via write_data, version 2 Aug 2023, timestep = 40000, units = real

4512 atoms
3 atom types

0.5600317843548727 19.631030463961768 xlo xhi
0 8.088404 ylo yhi
0 259.216927 zlo zhi
0 0 0 xy xz yz

Masses

1 12.0107
2 18.998404
3 1.00794

Atoms # charge

14 1 -0.1751213785139875 2.4197036142907136 2.1217035194347145 1.1640324353006821 0 0 0
15 3 0.1938187009668579 2.9799305644265917 1.2121707222992593 1.21948858723602 0 0 0
16 3 0.1909824112231533 3.1521527547996326 2.92134170476685 1.094082858206195 0 0 0
17 1 0.1419979275066824 1.6089201070423416 2.2132031749271244 2.443578855991811 0 0 0
18 2 -0.1052011692781496 0.8774573416533415 3.39212478845801 2.4579279297769596 0 0 0
19 2 -0.1040680840557001 0.6192512004957169 1.1651216840251806 2.3419076244914225 0 0 0
20 1 -0.1688149505020077 2.3143046242969607 2.1002381409699367 3.8852410092243317 0 0 0
21 3 0.2031266469638968 2.8108189945239066 1.1656720566861771 3.933012965697522 0 0 0
22 3 0.1971666565557675 3.0771128003226282 2.8122197081242946 3.9023986608498853 0 0 0
23 1 0.1504861566190952 1.4520393337077082 2.1874194597181322 5.1746786077114475 0 0 0
24 2 -0.1057349583194339 0.5880010830640519 3.269432091389175 5.065890586844598 0 0 0
25 2 -0.1033691352119902 0.6628075573617681 1.0416977756278303 5.222226331435243 0 0 0
26 1 -0.04019534566921843 2.2604421153769727 2.3138989248729747 6.6166798266659095 0 0 0
27 2 -0.1372157601355231 3.4008664604439387 1.4093270623992749 6.703861939390979 0 0 0
28 3 0.2046003312454221 2.7804184416864253 3.2106362363691385 6.5646713409327235 0 0 0
29 1 0.1514687035616855 1.455143719618396 2.319529788371454 7.941917900364602 0 0 0
578 1 -0.1816937357782399 4.765986589260709 6.119501473628926 1.135760664928872 0 0 0
579 3 0.1859830345809833 5.391077081099109 5.240865367223 1.0922723419319975 0 0 0
580 3 0.1806564897971383 5.4589906636780485 6.8899660410695365 1.3061188857222277 0 0 0
581 1 0.1145454906246991 3.9476055658621267 6.078060674798479 2.4733932850442906 0 0 0
582 2 -0.1265714038073962 2.9684626999447916 7.093417436668715 2.438829030467578 0 0 0
583 2 -0.1319413200251019 3.267200520636736 4.8390761041833255 2.495273885400938 0 0 0
584 1 -0.1718798712760369 4.70148413052226 6.2724514649574195 3.879742179819187 0 0 0
585 3 0.1980868828642272 5.505712409059709 5.543791830368932 3.9205388676850665 0 0 0
586 3 0.1892641107605319 5.115779779291331 7.21192518624986 3.88723610813399 0 0 0
587 1 0.1355543742944506 3.8556866587176417 6.147078494666091 5.14936256396466 0 0 0
588 2 -0.1220562093770906 2.9154588651083344 7.192027774299576 5.119062767455801 0 0 0
589 2 -0.1300232100506607 3.1823249802334495 4.915430275173709 5.003488606133793 0 0 0
590 1 -0.03925962151183583 4.626481106621327 6.181864269736817 6.508995455477667 0 0 0
591 2 -0.1437912801319175 5.755044766573988 5.294152532335122 6.5405148119722725 0 0 0
592 3 0.2062541265273424 5.175203545648572 7.086562378815564 6.532428586527372 0 0 0
593 1 0.131864730274556 3.790038597735569 6.066452869081407 7.886186460379161 0 0 0
1142 1 -0.1562036426907102 6.9801501001410555 2.122782919504126 1.0870207538345387 0 0 0
1143 3 0.1859497581777361 7.555305563827974 1.209735160314426 1.006150973765205 0 0 0
1144 3 0.1910421237511103 7.701786907455603 2.9503359930073465 1.0190403887784933 0 0 0
1145 1 0.0685918814050783 6.278738926718476 2.2013523343675807 2.4648275727282503 0 0 0
1146 2 -0.1536743983306012 5.622679462988187 3.4042993733974916 2.4841465830922407 0 0 0
1147 2 -0.1545286935732829 5.327860969557385 1.2201000641002475 2.4638023063266576 0 0 0
1148 1 -0.1461879006310574 6.953137214864684 2.095386523512832 3.879990431807516 0 0 0
1149 3 0.2030042465697484 7.578402030895607 1.2330072360651305 3.848387536544681 0 0 0
1150 3 0.1978283000243747 7.6125058322693855 2.929731955441742 3.9919986692617924 0 0 0
1151 1 0.09847443411545205 6.119547978739294 2.043215920354711 5.137858800067776 0 0 0
1152 2 -0.1485894286304631 5.188693362191103 3.0905606171754627 5.0656248146616765 0 0 0
1153 2 -0.1463688234433952 5.468326640110192 0.8543753318533219 5.0541730685438075 0 0 0
1154 1 -0.009767573716663758 6.905725472062286 2.152068085059382 6.53532315905736 0 0 0
1155 2 -0.136850692627036 7.957510054967222 1.2007367947892522 6.47391956040563 0 0 0
1156 3 0.2038049283626547 7.323842526194139 3.1224834873550464 6.470770400273354 0 0 0
1706 1 -0.1597664072183372 9.47475754764835 5.96893868754962 1.1634019779267208 0 0 0
1709 1 0.08773341453724211 8.675295594952889 6.026181981463644 2.4762277830561663 0 0 0
1710 2 -0.1483714573364724 7.916906427297356 7.183360753322677 2.469830845174406 0 0 0
1711 2 -0.1494061071664439 7.777285417492163 5.006315654812136 2.4450427655402063 0 0 0
1712 1 -0.1511717464706993 9.49781937975873 5.97209072923719 3.889680650726267 0 0 0
1715 1 0.1234026361160262 8.65664588567636 5.9852021051170885 5.156137689717929 0 0 0
1716 2 -0.1403573332589317 7.784410734323408 7.044114213277152 5.035671327671695 0 0 0
1717 2 -0.1435582217747349 7.9014294989977705 4.788018262239967 5.0999657605832285 0 0 0
1718 1 -0.01504830966790429 9.366966134116556 6.05450147595921 6.5977548682350635 0 0 0
595 2 -0.1314455073371021 3.001440465809794 4.9120985272547175 7.823819161065425 0 0 0
31 2 -0.1026935373341254 0.6026784037443325 1.173947498277544 7.917128557419043 0 0 0
594 2 -0.1202322898183802 2.881291340586752 7.194537492524297 7.936886483116153 0 0 0
1157 1 0.102739557294383 6.175436656682655 2.039600028088934 7.992669081974205 0 0 0
1723 2 -0.1454718550404712 7.774236277280854 4.8369158201691596 8.010310926542498 0 0 0
1159 2 -0.145175272411046 5.564850821122347 0.829842812427408 8.079349458944916 0 0 0
1720 3 0.2072316332221429 9.872890039290416 6.980132258136531 6.544170403434242 0 0 0
1158 2 -0.1515298181776506 5.242708165969753 3.0270555787977598 8.088112073164275 0 0 0
30 2 -0.1074209421602188 0.6730337051777555 3.4779332334813375 7.967154139339871 0 0 0
1721 1 0.1189683041322581 8.518617648256546 5.982916337127615 7.941958153992271 0 0 0
1722 2 -0.1409120572052825 7.633976348866893 6.984158247448257 7.907169209435795 0 0 0
2286 2 -0.1409073270892483 9.868859808617731 2.9473031204949733 7.950600987019049 0 0 0
2274 2 -0.1477598409635419 9.857945063026479 3.074406663254277 2.4873912313459363 0 0 0
2280 2 -0.1402102914167634 9.911763029139864 3.095188826562904 5.21531308612338 0 0 0
1707 3 0.1843625271991023 10.030818777943633 5.06200057124112 1.2385438308089498 0 0 0
1713 3 0.1946398506968113 10.093637170652258 5.062190803717606 3.8925006559879183 0 0 0
1725 3 0.1960119930224234 9.864806501324008 5.208274320355184 9.345136971665394 0 0 0
1740 2 -0.1397712910992301 8.040392911234333 7.543807081325294 16.14947569703965 0 0 0
1726 3 0.19327884749425 9.946426727306832 6.82984981745856 9.238333472013577 0 0 0
2293 2 -0.1469101781220053 9.94398047303403 1.3423535924730408 10.705908080795496 0 0 0
613 2 -0.1166356518610848 2.4098409456365117 5.322137213589452 15.751473770532975 0 0 0
1177 2 -0.1464126757340956 5.1412127310037885 1.2604868056307057 15.896434325906407 0 0 0
612 2 -0.1313585986130211 3.184461102988775 7.339565395172162 16.197711956340058 0 0 0
607 2 -0.1170659778252472 2.4201936345873203 5.5766508886849335 13.142007449400804 0 0 0
603 3 0.179712862698989 4.787948442202631 5.018037859743017 11.89419349298607 0 0 0
1732 3 0.1978033744432667 9.992334599159108 7.035438413857776 12.16187126029749 0 0 0
604 3 0.204920560838779 5.348947274783707 6.6531624433607135 12.024300239740558 0 0 0
49 2 -0.1045361859064975 0.7228102753172111 0.7842387704821412 16.00475042235409 0 0 0
1731 3 0.1916465974443912 9.838709225934245 5.292063349080522 12.125727714834452 0 0 0
606 2 -0.130525697775517 3.2201098087033824 7.587576204006952 13.214109742456275 0 0 0
609 3 0.1980883383765875 4.693431920468013 5.0373254130896585 14.573700808183846 0 0 0
47 1 0.1548960300702343 1.5398042670990117 1.9543235229504492 16.02036941709812 0 0 0
610 2 -0.1374274858662887 5.594011451467458 6.817491333125015 14.773083103415754 0 0 0
1161 3 0.2061357617311384 7.8164137362800075 1.343252421525729 9.060919324887314 0 0 0
1165 2 -0.1489242088015049 5.608810188386924 0.9931934047502686 10.564003770675104 0 0 0
1164 2 -0.1559547454962036 5.512786823333595 3.156520052382414 10.683517603494275 0 0 0
2299 2 -0.1406598919739943 10.062635165985535 1.2172768204211724 13.385255716554127 0 0 0
602 1 -0.1737930887508082 4.484379310127221 6.06164614340869 11.925657649147555 0 0 0
1163 1 0.07622648581516953 6.40567464404217 2.144706055995063 10.62557512025134 0 0 0
608 1 -0.03107883085471474 4.349924658580243 6.005076711528125 14.622400454355539 0 0 0
1160 1 -0.1518175682179567 7.119176396066573 2.171696514716016 9.189805808755672 0 0 0
1171 2 -0.1453423198109574 5.57161286095167 1.0387007079981 13.265311937603213 0 0 0
601 2 -0.1281450431954482 2.790846645852224 5.242379944119884 10.457742735488026 0 0 0
1166 1 -0.1496519328927189 7.168072384085453 2.164666854061116 11.973829106766786 0 0 0
1170 2 -0.1492533937727674 5.540397971595304 3.2073596229796077 13.387247455215844 0 0 0
1162 3 0.1921009935971677 7.665075713731842 3.0476945634443244 9.074950830777784 0 0 0
1168 3 0.1950740615408324 7.8119840507646305 2.9955917460300348 11.934685750745931 0 0 0
1173 3 0.2099497007750043 7.6789562460723895 1.1309825397912014 14.69098257687016 0 0 0
1174 2 -0.137458665673774 8.191536182897666 3.0853077801075317 14.832621413769328 0 0 0
1172 1 -0.008441073173073237 7.084919826814582 2.0317455926983925 14.734597533264296 0 0 0
1724 1 -0.1620779041029203 9.28155749637351 6.053086382678912 9.276740850111292 0 0 0
1730 1 -0.158673872627183 9.270758972373251 6.205816307075293 12.041202065412303 0 0 0
605 1 0.1325763026224735 3.63271642486714 6.289510753892838 13.20475416447564 0 0 0
1169 1 0.1054821305208471 6.389189683606397 2.1248174822017334 13.33243422388224 0 0 0
1167 3 0.1982525127916557 7.794211973083244 1.292308647625773 11.968435149711212 0 0 0
611 1 0.1333834559546425 3.572269713886043 6.05904345410084 15.988642672036233 0 0 0
1727 1 0.08625613361940157 8.514584017869621 6.244934546195233 10.667904057418033 0 0 0
1737 3 0.2090081928350958 9.5943989394727 5.101432764293026 14.62511955858046 0 0 0
1729 2 -0.1494978714745047 7.418421571458575 5.324096079775698 10.74750097507893 0 0 0
1735 2 -0.1421190511044744 7.416137100937724 5.271317936723636 13.235347634858316 0 0 0
1734 2 -0.1403694641548358 7.748101518349775 7.446037035507726 13.321100004704514 0 0 0
1736 1 -0.01617964038542886 9.202462209733545 6.075889453387139 14.641033412186534 0 0 0
1728 2 -0.1461726480222918 7.977370344534779 7.4754185044839 10.59903957398169 0 0 0
32 1 -0.1665286790131838 2.275391631210629 2.288516434588068 9.262349288548203 0 0 0
33 3 0.2036406561980008 2.99613550464147 1.4810442575571297 9.220626810164013 0 0 0
34 3 0.1892797620164948 2.8837611168892927 3.1823185026516434 9.306759234868482 0 0 0
35 1 0.1422743343961907 1.475382418061519 2.168203923085064 10.643898758056793 0 0 0
36 2 -0.1063408999270637 0.5935360481388807 3.2646523821055315 10.6794039740843 0 0 0
37 2 -0.1042554756629469 0.6611824258558125 1.0847053635029356 10.56629513427793 0 0 0
38 1 -0.1761519178123419 2.2785898003020653 2.1728946524443318 11.99996378019941 0 0 0
39 3 0.1999946796722957 2.893501148912175 1.3464492465720421 11.924852027152948 0 0 0
40 3 0.1914824383046924 2.8985654687794242 3.0887392013979644 12.097946324282942 0 0 0
41 1 0.1547645737147578 1.545059527143183 1.971137794377153 13.313940405313609 0 0 0
42 2 -0.1039829710254494 0.5902287670437669 3.0246101995765775 13.396240228250612 0 0 0
43 2 -0.1040845856580887 0.7527771025242969 0.7985314041430835 13.1811894185293 0 0 0
44 1 -0.04806795139636727 2.381837661693845 1.9720525471989407 14.683879113314237 0 0 0
45 3 0.2053037575300687 3.114160350054321 1.160073403437307 14.66754239304811 0 0 0
46 2 -0.1396757279513106 3.2131329226609444 3.1523460891409014 14.642391377401346 0 0 0
1733 1 0.1225275383590567 8.37029044277055 6.2569383857238074 13.297447160826122 0 0 0
596 1 -0.1731791180576228 4.573358292815895 6.066394692631711 9.190463217370747 0 0 0
597 3 0.1868928320767383 5.100166295732792 5.147532490618737 9.23450933079376 0 0 0
598 3 0.1986760252339431 5.3198418420088 6.80261825563185 9.115673740110791 0 0 0
599 1 0.1113901668981676 3.79299058668842 6.22654430499621 10.54879745583012 0 0 0
600 2 -0.1287625411243215 3.143419056533755 7.467986754261678 10.581681457129186 0 0 0
1739 1 0.126854189754028 8.58273874281831 6.262261571065036 16.096369188914892 0 0 0
1175 1 0.103328462380432 6.261819612908097 2.04050482313788 16.047422197997538 0 0 0
48 2 -0.1028556736704516 0.6303031153764836 3.066489865816558 15.998442790729902 0 0 0
1176 2 -0.1475598002710667 5.772967539199014 3.348745851192396 16.187879404112262 0 0 0
50 1 -0.1772140237769254 2.2162298470057005 1.9281205744499237 17.381691497582906 0 0 0
51 3 0.1954118043443779 2.775722767601404 1.0086037450444199 17.433931014456206 0 0 0
52 3 0.1886886299766774 2.8730279560320224 2.6419519144103445 17.417671445969205 0 0 0
53 1 0.1435105260671514 1.4485982714846224 1.8072220040283598 18.78646468786135 0 0 0
54 2 -0.1068080685328344 0.6673074298141878 2.880875917433083 18.817718381040265 0 0 0
55 2 -0.1058677554722133 0.6540305354494902 0.7148156118222438 18.691855891054434 0 0 0
56 1 -0.1800963137578853 2.287818052920605 1.723103927689416 20.132228963134256 0 0 0
57 3 0.1968103207262566 2.8716911551674764 0.8055868418802291 20.126741753036228 0 0 0
58 3 0.1902165109585284 2.946984664906957 2.523271139918157 20.246021285866274 0 0 0
59 1 0.152727318596504 1.4632200140356408 1.6999633190416288 21.41104839193341 0 0 0
60 2 -0.1075911652875498 0.7195578363738836 2.886577847357962 21.348978445781338 0 0 0
61 2 -0.1032246644519258 0.5710232829563933 0.6102563504709532 21.45687744144836 0 0 0
62 1 -0.0475032328346747 2.3092183388648215 1.7269204508023146 22.780777799896317 0 0 0
63 2 -0.1394987846004388 3.2448880895394066 0.654943605529785 22.870550112632447 0 0 0
64 3 0.2036147078670736 2.8417524540752988 2.6300003390633617 22.784476738779244 0 0 0
614 1 -0.1730490646654576 4.229706823618176 5.595358143599365 17.3210391475355 0 0 0
615 3 0.1856895904327198 4.382341078175823 4.58475377271695 17.178213413421705 0 0 0
616 3 0.1953379750437161 5.200306710817087 6.135967147429534 17.429735971505544 0 0 0
617 1 0.1054002416910041 3.499374112927268 5.79499145823244 18.68212532768109 0 0 0
618 2 -0.1279440868307435 2.7712687306305406 6.9580713712766125 18.631475259326926 0 0 0
619 2 -0.1257079316406683 2.5872714774793755 4.821325611614328 18.706892113283704 0 0 0
620 1 -0.1752684884619861 4.243093380695931 5.786362645421805 20.090085630671688 0 0 0
621 3 0.1894282670969949 4.815744267234925 4.881135890429411 19.97688107437133 0 0 0
622 3 0.1925005849353507 4.837313761353439 6.642088951389378 20.152367441987394 0 0 0
623 1 0.1327401381681363 3.497750994581357 5.581330157795793 21.397759830547937 0 0 0
624 2 -0.1181144870822448 2.4446102811962387 6.428745972951629 21.375250239238177 0 0 0
625 2 -0.1338557353400581 3.035647614313697 4.294659439102929 21.41863140435373 0 0 0
626 1 -0.03041327180627987 4.343599520912466 5.889938569018156 22.745453004733825 0 0 0
627 2 -0.1383628643085687 5.567311301240832 5.144226866660252 22.712517777106378 0 0 0
628 3 0.2031855354363228 4.651760974492141 6.898543654568678 22.727291021646696 0 0 0
1178 1 -0.1548939909050521 6.917470588698319 1.6642933997766587 17.41535417179497 0 0 0
1179 3 0.1969136449866901 7.505392367176195 0.7830742131284866 17.325907648532002 0 0 0
1180 3 0.1940722029528583 7.655983408379772 2.410878256307752 17.561756136247563 0 0 0
1181 1 0.06497211415791326 6.140845924168047 1.5764883598054926 18.74262493359931 0 0 0
1182 2 -0.154365075597126 5.202180859953553 2.565639163315181 18.743906109828934 0 0 0
1183 2 -0.1508156471739205 5.418190611361893 0.3697389131537481 18.760629833473946 0 0 0
1184 1 -0.1572741182109822 6.97253012122849 1.6814435276667952 20.14589877271195 0 0 0
1185 3 0.2009629836562335 7.6786578503409855 0.8971851647206414 20.295646741217446 0 0 0
1186 3 0.193170394837931 7.502814471256157 2.6097882425012595 20.057577116877457 0 0 0
1187 1 0.1018244596345338 6.210780024350889 1.664371598762442 21.4723974198529 0 0 0
1188 2 -0.1480072748694566 5.320194125333912 2.719261211878319 21.42440292764354 0 0 0
1189 2 -0.147791015066529 5.461930506854014 0.5348589902841906 21.488010560391135 0 0 0
1190 1 -0.008234783627828656 7.022924867436082 1.7630819913780256 22.864039944354545 0 0 0
1191 2 -0.1374435142946789 8.10002963881724 0.7634281515851523 22.840065638962933 0 0 0
1192 3 0.2105596497939864 7.634709131679825 2.668538769163673 22.842303685117827 0 0 0
1742 1 -0.15055268826617 9.412267949588255 6.097239102002036 17.404719962401707 0 0 0
1745 1 0.08724024353564805 8.654180544308343 5.987574877894447 18.79378951867032 0 0 0
1746 2 -0.1453165429440126 7.738200345996439 6.972545118135005 18.816875999894766 0 0 0
1747 2 -0.1437022750059702 7.961234327283788 4.776231110732637 18.79235969654276 0 0 0
1748 1 -0.1594826322203027 9.399773133739261 6.081681640259068 20.13827401720459 0 0 0
1751 1 0.1344813493000823 8.53092664008284 5.909738873245888 21.466436579996312 0 0 0
1752 2 -0.1393516905172873 7.523722795915853 6.904027975515811 21.46813209399931 0 0 0
1753 2 -0.1378190134507032 7.892062518286172 4.6743031729349 21.423096301988632 0 0 0
1754 1 -0.01255120055990082 9.220422083094276 5.983601940436648 22.86118259293413 0 0 0
1756 3 0.2069291948653593 9.762251712472136 6.895216709816461 22.971842168743876 0 0 0
65 1 0.1551260068698798 1.456922897837699 1.7144880723211535 24.12544701270162 0 0 0
1743 3 0.1996473065470527 9.942295053437935 5.156063362728461 17.305024578278548 0 0 0
1750 3 0.1956882456718561 9.88529471757108 7.022293670535022 20.14970929689449 0 0 0
1741 2 -0.1382810076319756 7.504539595041293 5.411834122721005 16.201062771617565 0 0 0
2310 2 -0.1441844753905539 10.074894038772227 2.8512741537259054 18.71804767304246 0 0 0
631 2 -0.1353005508980228 3.2710340150598047 4.235539575021783 24.130688011351978 0 0 0
629 1 0.1355612806555927 3.5766741967237055 5.558360977342138 24.11330714012204 0 0 0
630 2 -0.1162225626155168 2.345905847268411 6.334238411428857 24.11572281926212 0 0 0
1757 1 0.1319709212909792 8.411359655541553 5.760711441182709 24.22433031215627 0 0 0
1758 2 -0.1392907717983316 7.32820259588014 6.595163315840911 24.234673269450475 0 0 0
1759 2 -0.1389258116728876 7.96027537484698 4.459541175899393 24.16179391411287 0 0 0
67 2 -0.1048197225323585 0.6499175345574058 0.5293429203074113 24.11437582676009 0 0 0
66 2 -0.1059255926958491 0.6209495616493582 2.7948029269288366 24.16043162023043 0 0 0
2316 2 -0.1373088307259366 9.962187774989077 2.750976853813539 21.54587264550687 0 0 0
1195 2 -0.1473068291388905 5.587215036597026 0.41637719120951416 24.270258291785055 0 0 0
1193 1 0.1044416679270722 6.223631164952828 1.7128835096139094 24.232131192675578 0 0 0
1194 2 -0.1469405715977231 5.254427093290161 2.70586850325809 24.213116999683876 0 0 0
2335 2 -0.1403839897683721 10.016727598861795 0.9219480098585586 29.486280206023157 0 0 0
83 1 0.1622250258902131 1.5337302692901909 1.7265965979700608 32.23952809034898 0 0 0
68 1 -0.170550964841324 2.2366497103343783 1.6851336862475483 25.482819996340424 0 0 0
647 1 0.139265831341767 3.380582676611341 5.84881698307407 32.2525203092459 0 0 0
648 2 -0.1228545964412829 2.4057206750207567 6.885381269183219 32.08938556593333 0 0 0
84 2 -0.1012414648991476 0.7301301722262146 2.8237549097932093 32.25736136252592 0 0 0
649 2 -0.1189308275006361 2.6331644920768147 4.658145804776013 32.37638850483377 0 0 0
85 2 -0.1070320543660097 0.6357415695130433 0.6207562143203358 32.176621199024545 0 0 0
70 3 0.1962669002222628 2.9111518910461225 2.5413715625622206 25.52880064056278 0 0 0
1767 3 0.1913102542152574 9.663959828096841 4.909976416148836 28.20684340646115 0 0 0
73 2 -0.1064639665647055 0.573768554571137 0.5534831883989181 26.80074494344129 0 0 0
76 3 0.1927797347872508 2.9417502955562567 2.6155440733634183 28.14209627854957 0 0 0
75 3 0.1867356260005376 2.79323441791382 0.8370084985701717 28.147684470182995 0 0 0
69 3 0.1911310358734742 2.78190634872877 0.7074624168561037 25.53817329471434 0 0 0
1761 3 0.1951783439387758 9.890135340706983 5.174060125805997 25.6760231461552 0 0 0
71 1 0.1339287924681631 1.432105893485896 1.6915623937351376 26.808941383513343 0 0 0
77 1 0.1618207117554782 1.4418181820889218 1.7477749938138967 29.52426288658531 0 0 0
79 2 -0.1073499826586491 0.6805304208216472 0.5812963758745108 29.580080687815883 0 0 0
1768 3 0.2004732489857195 9.851190670255093 6.605141253533712 28.41624283207599 0 0 0
78 2 -0.1012676500132619 0.6149823984318895 2.831075175549667 29.56348953533303 0 0 0
72 2 -0.103561386519224 0.5623146307548726 2.9014912717527137 26.81049064142561 0 0 0
74 1 -0.1663805732096091 2.1902883915061264 1.7612594851856003 28.18884579438925 0 0 0
1762 3 0.1946259029977103 9.79907695016229 6.871154696684461 25.436433739666345 0 0 0
80 1 -0.04127360387417662 2.2454616953026734 1.7177290882907958 30.885567008328426 0 0 0
82 2 -0.1371708945703374 3.304118700693773 2.8250578284746384 30.813524276438333 0 0 0
632 1 -0.1676792109536598 4.299033381079072 5.891137994203735 25.426965765963757 0 0 0
634 3 0.1846146328322145 4.562668092551862 6.910470443767433 25.36143405354975 0 0 0
635 1 0.1073282054110676 3.5693186844623965 5.6391698148372695 26.816272690316488 0 0 0
639 3 0.1916023923293235 4.709086864457107 4.656774585853775 28.28915973139726 0 0 0
637 2 -0.131923103791511 2.8915109701792527 4.440241581993914 26.731794216029353 0 0 0
636 2 -0.1264391501406127 2.613282649233443 6.637542243901556 26.937767454070283 0 0 0
638 1 -0.1664416904234139 4.2391079169899974 5.651228888467667 28.209137428557955 0 0 0
81 3 0.1969602886384331 3.002916971256807 0.980408046610658 30.79261795996425 0 0 0
633 3 0.1978463487953478 5.277163082878394 5.339412374470192 25.446238502427253 0 0 0
642 2 -0.1335199405617835 3.0076704863884682 7.128958454538009 29.434147393837378 0 0 0
644 1 -0.03482737126672818 4.2564560991301015 5.708850059336628 30.899105053639243 0 0 0
643 2 -0.115109219876882 2.3498280711212045 4.984486417339182 29.475922317016142 0 0 0
641 1 0.1345756177824278 3.477267002108642 5.871543663584784 29.51415519901651 0 0 0
640 3 0.1920753887967056 4.99666164306828 6.436191644393819 28.269732862902263 0 0 0
646 2 -0.142053730177967 5.339168783784083 6.653076560446863 30.96203250472911 0 0 0
645 3 0.2109032436366254 4.677002603849384 4.774372066412831 30.991686109689272 0 0 0
1196 1 -0.1558098773142805 6.9169600945071394 1.916497977427372 25.576085742592028 0 0 0
1199 1 0.0622522876843648 6.16333778154496 2.005265567565164 26.971149720299405 0 0 0
1200 2 -0.1530559143757434 5.44706175801059 3.2273385925420324 26.95359724786844 0 0 0
1201 2 -0.1546427009280746 5.233213184702004 1.0321776813093777 26.964471362019246 0 0 0
1203 3 0.1931344659097735 7.508595728006462 0.9521899197621613 28.286976971517042 0 0 0
1198 3 0.193993291151131 7.5304635849189046 2.7877567414196083 25.47356584386664 0 0 0
1202 1 -0.1502076098846133 6.933977666755321 1.8694162756014856 28.351737168599975 0 0 0
1205 1 0.1072870095771482 6.17134157886568 1.9616671694402554 29.68765127338219 0 0 0
1204 3 0.1967561352171112 7.677441908232806 2.676395033105188 28.343924185083168 0 0 0
1208 1 -0.007701031804576871 6.9456732580098635 1.8437491983281502 31.10475544159936 0 0 0
1206 2 -0.1467537903850696 5.509948645126046 3.213661210224875 29.692168381425585 0 0 0
1209 3 0.2050921013630864 7.44998567456098 0.8952522547181201 31.135081192391397 0 0 0
1773 3 0.2097073033071188 9.435806932723326 4.858162180963836 31.082926269912395 0 0 0
1197 3 0.195288934293118 7.62582465638551 1.1608850197247491 25.676905448749288 0 0 0
1207 2 -0.1497878553298221 5.214515138207613 1.002468382971589 29.67696164852106 0 0 0
1210 2 -0.1367269719556709 8.075221742022334 2.8583974960627905 31.07623260174671 0 0 0
1763 1 0.08865734219905502 8.396504776450302 6.083835448583263 26.89709048738551 0 0 0
1760 1 -0.1582455414795101 9.183606156654983 6.006252295800466 25.561273870565763 0 0 0
1764 2 -0.1472124086295593 7.81700977214818 7.326198165285924 26.91068536320418 0 0 0
1770 2 -0.1420356879641536 7.4714550351478675 7.053787773333887 29.45520692643251 0 0 0
1769 1 0.1250485858291892 8.263661306238886 5.908163213188954 29.52726877664095 0 0 0
1772 1 -0.01893633651140472 8.991932548876338 5.804035330997848 31.003704846520236 0 0 0
1765 2 -0.1465954119104836 7.39788476354604 5.114172384504526 26.830482181994576 0 0 0
1766 1 -0.165525789830299 9.148105048981455 5.845381279744568 28.27875635974234 0 0 0
1771 2 -0.1411176836833752 7.37934252776626 4.855158190219953 29.42883927816155 0 0 0
1775 1 0.1175492286302795 8.223592559414021 5.930506503905928 32.34446258331755 0 0 0
86 1 -0.1777694300629669 2.332438368027702 1.587299341612531 33.62788304178145 0 0 0
87 3 0.1773300725949234 2.892070447679387 0.6578048433906469 33.63854118283233 0 0 0
88 3 0.2015890667818216 3.0205463984109016 2.3976211917799186 33.618088268440594 0 0 0
89 1 0.1313008840982129 1.5701084893954418 1.6399025986451965 34.95275233651289 0 0 0
90 2 -0.1033663818412101 0.7112075406117525 2.767150234573801 34.94207701635612 0 0 0
91 2 -0.1103199643864151 0.7274444223997089 0.43458013854920124 34.99906554798411 0 0 0
92 1 -0.1868714824052223 2.48610322894717 1.7428448951103328 36.25141775494159 0 0 0
93 3 0.1755070743897582 2.9617561761754443 0.7548561030619557 36.37507500232175 0 0 0
94 3 0.2003136419698048 3.22768849300988 2.418464191787659 36.096402837799175 0 0 0
95 1 0.117767888770628 1.8303397493266456 1.9556677024922497 37.57610980983955 0 0 0
96 2 -0.1020953836174249 0.5735664011085402 2.642999799785841 37.59767943391958 0 0 0
97 1 0.03225514799056141 2.37154171916466 1.5890577401387833 38.684788760439545 0 0 0
98 2 -0.1381966241004079 3.6296302536547635 0.839202068527488 38.73482781482508 0 0 0
99 1 0.1450685961718099 1.5281980864971612 1.701960709181501 39.94634530776052 0 0 0
100 2 -0.1031293602151416 0.7599840034709217 2.8909807123667246 39.88961704341936 0 0 0
650 1 -0.1756154679847112 4.083402135553504 5.9989354797493375 33.58863451675569 0 0 0
651 3 0.1944898043348691 5.017333008602928 5.433995111971696 33.580419183262045 0 0 0
652 3 0.1734126344410805 4.438221955248848 6.997547649942518 33.623377424150114 0 0 0
653 1 0.1006583290198704 3.408463976292482 5.748509953432916 34.989320717167395 0 0 0
654 2 -0.1194713622313995 2.211137258835605 6.387626254561616 34.99886689503362 0 0 0
655 2 -0.1290797404004466 3.113061117321949 4.3591366721031815 34.99083964828587 0 0 0
656 1 -0.1862459075135345 4.161457259149507 6.101742057416662 36.36956306388692 0 0 0
657 3 0.1998232814148695 5.027550155974023 5.5341761579336985 36.375216256127324 0 0 0
658 3 0.1676819451990157 4.440290166107125 7.136285219392402 36.22684751749475 0 0 0
659 1 0.1085294949583266 3.566254700879442 5.886308710235577 37.75295562528993 0 0 0
660 2 -0.1097080137397863 2.357562121568234 5.214959366884783 37.87275345125963 0 0 0
661 1 0.04493742776898652 4.271863204740349 6.261343545368331 38.73701764174448 0 0 0
662 2 -0.1390718374386941 5.5100103568348455 7.002048222616302 38.55155057316787 0 0 0
663 1 0.1428384925385147 3.6884721582387434 5.912630532975592 40.157866085416785 0 0 0
664 2 -0.1184729149140097 2.51837538818609 6.652329170245218 40.395822751407024 0 0 0
665 2 -0.1223839008859934 3.269244299588194 4.576304858512478 40.109220537800816 0 0 0
1214 1 -0.1511486110499782 6.978793491092299 1.9179479606016865 33.82549800362414 0 0 0
1215 3 0.1826481558017396 7.638575989597108 1.0684106758515708 33.794162576770304 0 0 0
1216 3 0.1966934587793692 7.665944486205573 2.7323389903494655 33.841401423331504 0 0 0
1217 1 0.06009721392891081 6.207681315317381 1.9412768875482127 35.185854513503024 0 0 0
1218 2 -0.1461073354350231 5.472306299445071 3.089165517181357 35.202805506461445 0 0 0
1219 2 -0.1572402218109235 5.282991562463641 0.8910271612737904 35.171988406679915 0 0 0
1220 1 -0.1691423373820873 6.962125516094392 1.8114632189339253 36.61764782290426 0 0 0
1221 3 0.1823974642121604 7.416666352863029 0.8609541285714162 36.62678638874564 0 0 0
1222 3 0.2025706962570979 7.7436232611460065 2.4759768999206107 36.59177242033732 0 0 0
1223 1 0.1011142167816325 6.326243859636575 2.0284996590601905 37.93700771641985 0 0 0
1224 2 -0.133425603623109 5.250687441317326 2.8675515287828497 37.94947729603148 0 0 0
1225 1 0.06019300052399446 6.818624171886736 1.4561051171256998 39.0380142641077 0 0 0
1226 2 -0.139191207679171 7.681960610615845 0.333814186781225 38.9856715344688 0 0 0
1227 1 0.1126709367465555 6.152841248121272 1.814529851492976 40.34166732919308 0 0 0
1778 1 -0.1630917631081115 8.999321305299924 5.8338348683240655 33.667765520979295 0 0 0
1781 1 0.06930574938854536 8.239098109721905 5.780006809850368 35.11694855416389 0 0 0
1782 2 -0.1497345822189841 7.412111187079066 6.899401834282494 35.131310664175786 0 0 0
1783 2 -0.1426190383804724 7.421671512831522 4.700287223023033 35.08835783291211 0 0 0
1784 1 -0.1718413980223738 8.987097116838678 5.783660728635036 36.47194347879631 0 0 0
1787 1 0.1060113628575758 8.400833502797823 5.392456944162535 37.84146566390789 0 0 0
1788 2 -0.127724908712941 7.437412086192969 4.398958857999914 37.959432380741546 0 0 0
1789 1 0.05037140238569653 8.965897058425236 5.937487162785523 38.90427650437819 0 0 0
1791 1 0.1372342195237347 8.35732669968399 5.5637591914048325 40.23625681074923 0 0 0
1793 2 -0.1287212769745182 8.30939829955971 4.161719949219436 40.34105441493293 0 0 0
1228 2 -0.1357547979897098 5.563371337815501 3.092741510963135 40.28030363243122 0 0 0
101 2 -0.1058129146494518 0.630829812728942 0.6008818070966296 39.98319233107693 0 0 0
1779 3 0.1930600921753814 9.53623959348952 4.928880194249924 33.699697872820686 0 0 0
2357 2 -0.1357785378122555 9.849350381128398 1.4636531818808465 40.27959892965201 0 0 0