 LAMMPS data file, charge style generated xyz_lammps.py by Wenchang Lu 

4512 atoms
3 atom types

0.000000   22.828464   xlo xhi 
0.000000   8.088404   ylo yhi 
0.000000   259.216927   zlo zhi 
0.000000   0.000000   0.000000  xy xz yz 

Masses

3  1.007940
1  12.010700
2  18.998404

Atoms # charge

1 1 0.0 2.011537 2.079402 -5.431193 
2 2 0.0 0.699520 2.499216 -5.503486 
3 1 0.0 2.627015 1.951275 -4.257834 
4 3 0.0 3.586736 1.540430 -4.247894 
5 1 0.0 1.842828 1.957206 -3.008116 
6 2 0.0 0.972460 3.040213 -3.019499 
7 2 0.0 1.058276 0.818297 -2.938113 
8 1 0.0 2.595738 2.041375 -1.545549 
9 3 0.0 3.346600 1.220902 -1.436438 
10 3 0.0 3.071702 3.041636 -1.505523 
11 1 0.0 1.792415 1.927959 -0.243018 
12 2 0.0 0.878195 2.959086 -0.222331 
13 2 0.0 1.070103 0.786566 -0.212277 
14 1 0.0 2.600733 2.123773 1.135794 
15 3 0.0 3.396575 1.413515 1.224341 
16 3 0.0 3.197828 3.049314 0.993437 
17 1 0.0 1.845209 2.134345 2.438986 
18 2 0.0 1.039020 3.265773 2.400264 
19 2 0.0 0.987721 1.046248 2.402859 
20 1 0.0 2.686389 2.139117 3.838235 
21 3 0.0 3.423059 1.339859 3.721879 
22 3 0.0 3.242588 3.097235 3.811213 
23 1 0.0 1.898201 1.960372 5.104397 
24 2 0.0 0.953757 2.970854 5.140483 
25 2 0.0 1.192275 0.735680 4.958545 
26 1 0.0 2.635949 1.995898 6.561427 
27 2 0.0 3.770886 1.081932 6.509899 
28 3 0.0 3.005426 2.947626 6.538280 
29 1 0.0 1.921730 1.831795 7.958257 
30 2 0.0 0.903989 2.788073 8.042475 
31 2 0.0 1.260970 0.601660 7.972219 
32 1 0.0 2.722370 1.908431 9.271896 
33 3 0.0 3.351062 1.069301 9.268938 
34 3 0.0 3.379637 2.739054 9.302393 
35 1 0.0 1.892195 1.959553 10.600820 
36 2 0.0 1.090896 3.093457 10.515298 
37 2 0.0 1.024150 0.842346 10.573045 
38 1 0.0 2.607417 2.032874 12.041646 
39 3 0.0 3.139382 1.053159 12.094209 
40 3 0.0 3.405656 2.735246 12.057308 
41 1 0.0 1.781294 2.085115 13.312656 
42 2 0.0 1.080650 3.252518 13.262520 
43 2 0.0 0.827650 1.039595 13.212228 
44 1 0.0 2.576912 1.962294 14.716377 
45 3 0.0 3.050012 0.990657 14.657292 
46 2 0.0 3.597859 2.962989 14.705079 
47 1 0.0 1.808636 2.020854 16.097043 
48 2 0.0 1.158253 3.273670 16.169850 
49 2 0.0 0.715648 1.124506 16.070359 
50 1 0.0 2.475486 1.916437 17.477041 
51 3 0.0 3.088905 0.982134 17.570706 
52 3 0.0 3.236873 2.643443 17.522074 
53 1 0.0 1.674857 1.999572 18.833453 
54 2 0.0 0.954661 3.185624 18.895949 
55 2 0.0 0.792615 0.915788 18.797907 
56 1 0.0 2.487356 1.852422 20.179579 
57 3 0.0 3.167519 0.940605 19.999067 
58 3 0.0 3.144001 2.681736 20.323905 
59 1 0.0 1.802219 1.658761 21.515284 
60 2 0.0 0.807270 2.592623 21.598572 
61 2 0.0 1.214962 0.388131 21.409200 
62 1 0.0 2.581975 1.700596 22.920419 
63 2 0.0 3.707677 0.848351 22.897227 
64 3 0.0 3.056472 2.677097 22.863506 
65 1 0.0 1.817104 1.639777 24.340901 
66 2 0.0 0.824239 2.652370 24.332627 
67 2 0.0 1.107868 0.453752 24.476196 
68 1 0.0 2.600242 1.785192 25.636938 
69 3 0.0 3.275991 0.946850 25.654976 
70 3 0.0 3.177041 2.703349 25.688545 
71 1 0.0 1.796462 1.761918 26.986978 
72 2 0.0 0.990811 2.855290 27.045862 
73 2 0.0 0.982547 0.666575 26.980946 
74 1 0.0 2.599911 1.595044 28.362459 
75 3 0.0 2.927036 0.551995 28.316372 
76 3 0.0 3.464940 2.168497 28.377105 
77 1 0.0 1.905129 1.880351 29.663944 
78 2 0.0 1.330015 3.146117 29.587969 
79 2 0.0 0.871509 0.918916 29.710303 
80 1 0.0 2.688736 1.860077 31.104715 
81 3 0.0 3.265168 0.933495 31.065915 
82 2 0.0 3.728518 2.833879 30.987709 
83 1 0.0 1.901267 1.941575 32.477445 
84 2 0.0 1.189015 3.155291 32.525443 
85 2 0.0 0.957574 0.887028 32.525100 
86 1 0.0 2.812550 1.885695 33.752391 
87 3 0.0 3.275820 0.899916 33.697419 
88 3 0.0 3.589879 2.625451 33.680601 
89 1 0.0 2.057093 2.002304 35.125659 
90 2 0.0 1.270745 3.144865 35.122253 
91 2 0.0 1.163346 0.967915 35.188213 
92 1 0.0 2.933864 1.974984 36.466311 
93 3 0.0 3.552736 1.172342 36.515605 
94 3 0.0 3.550939 2.835125 36.514897 
95 1 0.0 2.249642 2.048647 37.785859 
96 2 0.0 0.997491 2.624463 37.795101 
97 1 0.0 2.825382 1.619736 38.926672 
98 2 0.0 4.072633 0.931741 38.877918 
99 1 0.0 2.142094 1.667732 40.243603 
100 2 0.0 1.217842 2.678623 40.303966 
101 2 0.0 1.406400 0.461239 40.466732 
102 1 0.0 2.968070 1.819713 41.595902 
103 3 0.0 3.634555 0.936666 41.646421 
104 3 0.0 3.609336 2.637854 41.539091 
105 1 0.0 2.216679 1.890063 42.942563 
106 2 0.0 1.336320 2.987637 42.868832 
107 2 0.0 1.366936 0.809340 43.023673 
108 1 0.0 3.008231 1.931363 44.329332 
109 3 0.0 3.500640 1.049815 44.406140 
110 3 0.0 3.758869 2.780570 44.332104 
111 1 0.0 2.182422 2.066814 45.601401 
112 2 0.0 1.532822 3.304879 45.480923 
113 2 0.0 1.157322 1.123742 45.503978 
114 1 0.0 2.927562 2.003666 47.054994 
115 3 0.0 3.466391 1.113473 47.013643 
116 2 0.0 4.022686 2.935051 47.049053 
117 1 0.0 2.079934 2.100352 48.371602 
118 2 0.0 1.535075 3.399957 48.466426 
119 2 0.0 1.053322 1.239899 48.373643 
120 1 0.0 2.856626 1.900116 49.684430 
121 3 0.0 3.333089 0.984717 49.702944 
122 3 0.0 3.698772 2.682205 49.725812 
123 1 0.0 2.178733 2.091572 51.067230 
124 2 0.0 1.442794 3.220096 51.006617 
125 2 0.0 1.237797 1.044733 51.098082 
126 1 0.0 3.058848 2.053400 52.417255 
127 3 0.0 3.725344 1.207770 52.368658 
128 3 0.0 3.699856 2.895377 52.399856 
129 1 0.0 2.286784 1.839297 53.720619 
130 2 0.0 1.339962 2.853788 53.682299 
131 2 0.0 1.615372 0.660445 53.620315 
132 1 0.0 3.022878 1.898001 55.151741 
133 2 0.0 4.123210 0.960869 55.211538 
134 3 0.0 3.443181 2.872503 55.173524 
135 1 0.0 2.183511 1.771889 56.510735 
136 2 0.0 1.143995 2.740950 56.448133 
137 2 0.0 1.601722 0.536779 56.571836 
138 1 0.0 2.910351 2.008367 57.825063 
139 3 0.0 3.684702 1.189128 57.855103 
140 3 0.0 3.397892 2.998059 57.785802 
141 1 0.0 2.142785 2.058753 59.203777 
142 2 0.0 1.467952 3.281593 59.215939 
143 2 0.0 1.170245 1.093405 59.197037 
144 1 0.0 2.928440 1.910201 60.561459 
145 3 0.0 3.562382 1.044796 60.562810 
146 3 0.0 3.592085 2.771403 60.587936 
147 1 0.0 2.169650 1.881578 61.904421 
148 2 0.0 1.404974 3.039674 61.986208 
149 2 0.0 1.267820 0.825046 61.833831 
150 1 0.0 2.995687 1.764589 63.302698 
151 3 0.0 3.567180 0.840442 63.305956 
152 3 0.0 3.709514 2.572017 63.288400 
153 1 0.0 2.274870 1.941706 64.640598 
154 2 0.0 1.602079 3.153110 64.649771 
155 2 0.0 1.235414 0.959626 64.681479 
156 1 0.0 3.044262 1.940773 66.034435 
157 3 0.0 3.625262 1.063168 66.167624 
158 3 0.0 3.737104 2.785666 65.963414 
159 1 0.0 2.178767 2.086200 67.305349 
160 2 0.0 1.487028 3.239001 67.178940 
161 2 0.0 1.308741 1.038307 67.342188 
162 1 0.0 2.918436 2.132189 68.812337 
163 3 0.0 3.715583 1.438508 68.792302 
164 3 0.0 3.281903 3.149921 68.767631 
165 1 0.0 2.241180 2.018303 70.133433 
166 2 0.0 1.235068 2.901048 70.053286 
167 2 0.0 1.616375 0.771221 70.079045 
168 1 0.0 2.992444 2.149275 71.593573 
169 2 0.0 3.979100 1.115647 71.610402 
170 3 0.0 3.574997 3.070671 71.528395 
171 1 0.0 2.254815 2.173936 72.997316 
172 2 0.0 1.233469 3.108525 72.934017 
173 2 0.0 1.571229 0.915420 73.083560 
174 1 0.0 2.996775 2.388418 74.306924 
175 3 0.0 3.783900 1.624369 74.274060 
176 3 0.0 3.548753 3.321217 74.271861 
177 1 0.0 2.209698 2.409219 75.657624 
178 2 0.0 1.329285 3.471690 75.628006 
179 2 0.0 1.453994 1.191908 75.679408 
180 1 0.0 2.929874 2.594472 77.051333 
181 3 0.0 3.687278 1.861894 77.010029 
182 3 0.0 3.511500 3.487372 77.026979 
183 1 0.0 2.124746 2.567104 78.349775 
184 2 0.0 1.331749 3.672434 78.242142 
185 2 0.0 1.301718 1.431705 78.256363 
186 1 0.0 2.862460 2.527933 79.835195 
187 3 0.0 3.631824 1.802101 79.739736 
188 2 0.0 3.650889 3.741385 80.180350 
189 1 0.0 2.059109 2.119987 81.028387 
190 2 0.0 0.778754 1.758918 80.880773 
191 1 0.0 2.625671 2.100014 82.244497 
192 3 0.0 3.709765 2.322844 82.270354 
193 1 0.0 1.883410 1.947574 83.494011 
194 2 0.0 0.979352 3.008126 83.567980 
195 2 0.0 1.128100 0.795347 83.360456 
196 1 0.0 2.697911 1.877483 84.979747 
197 3 0.0 3.319453 1.054785 84.977595 
198 3 0.0 3.421435 2.604680 84.963308 
199 1 0.0 1.926623 1.827361 86.264899 
200 2 0.0 1.021469 2.908957 86.267799 
201 2 0.0 1.150369 0.636400 86.197051 
202 1 0.0 2.752446 1.787404 87.656016 
203 2 0.0 3.693041 0.705894 87.682964 
204 3 0.0 3.459557 2.563499 87.676455 
205 1 0.0 1.940690 1.778281 89.029432 
206 2 0.0 1.060966 2.837680 89.053247 
207 2 0.0 1.224071 0.601475 89.096487 
208 1 0.0 2.788726 1.910177 90.306141 
209 3 0.0 3.542180 1.169455 90.383948 
210 3 0.0 3.363205 2.795906 90.251041 
211 1 0.0 2.017324 1.938945 91.671001 
212 2 0.0 1.281607 3.106388 91.670538 
213 2 0.0 1.027393 0.910371 91.613910 
214 1 0.0 2.755663 1.813409 93.034149 
215 3 0.0 3.245476 0.829150 93.084178 
216 3 0.0 3.612273 2.519250 93.045415 
217 1 0.0 1.978579 1.854247 94.347083 
218 2 0.0 1.213449 3.032165 94.275710 
219 2 0.0 1.082413 0.756686 94.329882 
220 1 0.0 2.766127 1.819240 95.735707 
221 3 0.0 3.325395 0.942116 95.846252 
222 2 0.0 3.791102 2.822764 95.744186 
223 1 0.0 1.923534 1.890564 97.118832 
224 2 0.0 1.253140 3.113806 97.129547 
225 2 0.0 0.986336 0.927811 97.085678 
226 1 0.0 2.644247 1.785878 98.461463 
227 3 0.0 3.285312 0.918561 98.416882 
228 3 0.0 3.234982 2.689524 98.558234 
229 1 0.0 1.830310 1.783539 99.789900 
230 2 0.0 0.959349 2.914715 99.755806 
231 2 0.0 1.018961 0.661235 99.795843 
232 1 0.0 2.688324 1.809519 101.170522 
233 3 0.0 3.447849 1.067380 101.127562 
234 3 0.0 3.238538 2.760988 101.126598 
235 1 0.0 1.936004 1.562076 102.474910 
236 2 0.0 0.880724 2.432877 102.525527 
237 2 0.0 1.355043 0.324192 102.312166 
238 1 0.0 2.770440 1.683955 103.847805 
239 2 0.0 3.831083 0.648602 103.821819 
240 3 0.0 3.292925 2.648796 103.879615 
241 1 0.0 2.023287 1.626513 105.243117 
242 2 0.0 0.989674 2.563867 105.171241 
243 2 0.0 1.467915 0.386812 105.352724 
244 1 0.0 2.832994 1.806279 106.543002 
245 3 0.0 3.601506 1.018180 106.561191 
246 3 0.0 3.232547 2.784676 106.626006 
247 1 0.0 2.010830 1.758942 107.895589 
248 2 0.0 1.141506 2.791359 107.908338 
249 2 0.0 1.246953 0.559133 107.908115 
250 1 0.0 2.771831 1.784696 109.249876 
251 3 0.0 3.443110 0.935023 109.356118 
252 3 0.0 3.441557 2.656368 109.261678 
253 1 0.0 1.949862 1.966950 110.578422 
254 2 0.0 1.286111 3.178277 110.438961 
255 2 0.0 0.944486 0.953752 110.545229 
256 1 0.0 2.648908 1.925258 111.949648 
257 3 0.0 3.184231 1.027940 111.884256 
258 2 0.0 3.686304 2.983814 112.061367 
259 1 0.0 1.847268 1.958755 113.391628 
260 2 0.0 1.163485 3.208428 113.422976 
261 2 0.0 0.815252 1.047004 113.315189 
262 1 0.0 2.487548 1.793752 114.749367 
263 3 0.0 2.926443 0.857305 114.681564 
264 3 0.0 3.256165 2.419248 114.819945 
265 1 0.0 1.637549 1.883703 116.159362 
266 2 0.0 0.952941 3.130761 116.236060 
267 2 0.0 0.668573 0.887816 116.163958 
268 1 0.0 2.457332 1.839692 117.515661 
269 3 0.0 3.179500 1.038810 117.447412 
270 3 0.0 2.987995 2.793224 117.532337 
271 1 0.0 1.660086 1.636411 118.799998 
272 2 0.0 0.625678 2.494624 118.845002 
273 2 0.0 1.153312 0.385589 118.820035 
274 1 0.0 2.520415 1.806360 120.216148 
275 2 0.0 3.611618 0.847085 120.219350 
276 3 0.0 2.894787 2.758624 120.169156 
277 1 0.0 1.818774 1.739604 121.632299 
278 2 0.0 0.803852 2.650299 121.678365 
279 2 0.0 1.230902 0.478359 121.790660 
280 1 0.0 2.645578 1.991261 122.956063 
281 3 0.0 3.336470 1.223023 123.096517 
282 3 0.0 3.222609 2.863237 122.767962 
283 1 0.0 1.917772 2.188669 124.298437 
284 2 0.0 0.729730 2.784480 124.311188 
285 1 0.0 2.591775 1.928058 125.433959 
286 3 0.0 3.567326 1.549690 125.388905 
287 1 0.0 1.877546 1.938188 126.722092 
288 2 0.0 1.030305 3.009624 126.761786 
289 2 0.0 1.041419 0.776874 126.702598 
290 1 0.0 2.687081 1.925547 128.104189 
291 3 0.0 3.279519 1.070096 128.068452 
292 3 0.0 3.381144 2.748954 128.149361 
293 1 0.0 1.773815 1.969415 129.372046 
294 2 0.0 0.940878 3.090359 129.290170 
295 2 0.0 0.969389 0.834922 129.347048 
296 1 0.0 2.547349 1.935085 130.762219 
297 3 0.0 3.124808 1.070927 130.777946 
298 3 0.0 3.252930 2.727459 130.747028 
299 1 0.0 1.756439 2.035330 132.082288 
300 2 0.0 1.007479 3.177205 132.023555 
301 2 0.0 0.883274 0.914543 132.202219 
302 1 0.0 2.621539 2.208662 133.450868 
303 3 0.0 3.452584 1.452376 133.462681 
304 3 0.0 3.076227 3.159381 133.430187 
305 1 0.0 1.860670 2.030328 134.722245 
306 2 0.0 0.833380 2.969398 134.712165 
307 2 0.0 1.259874 0.782714 134.683973 
308 1 0.0 2.694271 2.102618 136.121114 
309 2 0.0 3.690617 1.133494 136.159050 
310 3 0.0 3.186807 3.046605 136.171213 
311 1 0.0 1.917973 2.024678 137.514661 
312 2 0.0 0.960559 3.091198 137.509344 
313 2 0.0 1.219721 0.810271 137.621183 
314 1 0.0 2.688799 2.105170 138.804748 
315 3 0.0 3.372599 1.310259 138.863001 
316 3 0.0 3.179595 3.072804 138.769672 
317 1 0.0 1.868375 2.008668 140.225574 
318 2 0.0 0.970938 3.084690 140.208198 
319 2 0.0 1.112142 0.801525 140.219341 
320 1 0.0 2.703102 2.097118 141.603892 
321 3 0.0 3.275912 1.150137 141.626498 
322 3 0.0 3.396681 2.906232 141.512262 
323 1 0.0 1.912745 2.251226 142.888283 
324 2 0.0 1.226437 3.489473 142.793203 
325 2 0.0 0.942224 1.209666 142.904162 
326 1 0.0 2.751101 2.226219 144.258147 
327 3 0.0 3.326369 1.404692 144.223909 
328 2 0.0 3.645777 3.374527 144.265737 
329 1 0.0 1.915938 2.229438 145.601184 
330 2 0.0 1.117024 3.393096 145.658587 
331 2 0.0 1.027724 1.142182 145.595422 
332 1 0.0 2.702656 2.139719 146.923533 
333 3 0.0 3.314437 1.298023 146.889510 
334 3 0.0 3.295494 3.034150 147.012256 
335 1 0.0 1.883446 1.993284 148.259494 
336 2 0.0 0.999816 3.059622 148.322057 
337 2 0.0 1.127701 0.876447 148.196345 
338 1 0.0 2.703465 1.985374 149.647977 
339 3 0.0 3.359903 1.149915 149.695458 
340 3 0.0 3.299373 2.848388 149.701888 
341 1 0.0 1.848734 1.886292 150.924450 
342 2 0.0 0.974337 2.956242 150.857976 
343 2 0.0 1.108396 0.785281 150.771027 
344 1 0.0 2.600870 1.874921 152.308478 
345 2 0.0 3.677869 0.966522 152.251992 
346 3 0.0 2.992431 2.852779 152.288984 
347 1 0.0 1.807051 1.807795 153.772202 
348 2 0.0 0.830912 2.791759 153.752662 
349 2 0.0 1.102254 0.616869 153.793215 
350 1 0.0 2.590142 1.867294 155.053871 
351 3 0.0 3.216401 0.960013 155.018915 
352 3 0.0 3.280089 2.647822 155.024513 
353 1 0.0 1.742845 1.795035 156.561432 
354 2 0.0 0.857330 2.901628 156.409013 
355 2 0.0 0.954733 0.666493 156.515361 
356 1 0.0 2.511373 1.874005 157.864005 
357 3 0.0 3.136183 1.042475 158.009260 
358 3 0.0 3.146431 2.778321 157.757742 
359 1 0.0 1.704201 1.973423 159.208131 
360 2 0.0 1.062626 3.258236 159.188447 
361 2 0.0 0.712328 1.014220 159.134678 
362 1 0.0 2.422815 1.735677 160.568890 
363 3 0.0 2.883078 0.837536 160.552001 
364 2 0.0 3.606052 2.685263 160.689639 
365 1 0.0 1.612438 1.833907 161.917986 
366 2 0.0 1.040563 3.113909 162.021210 
367 2 0.0 0.564115 0.915798 161.935564 
368 1 0.0 2.439423 1.670956 163.238821 
369 3 0.0 2.880934 0.742680 163.245542 
370 3 0.0 3.295987 2.323473 163.218178 
371 1 0.0 1.764059 1.748644 164.610141 
372 2 0.0 1.050398 2.916594 164.634691 
373 2 0.0 0.821800 0.687760 164.768555 
374 1 0.0 2.660372 1.725071 165.970583 
375 3 0.0 3.085016 0.697289 165.998171 
376 3 0.0 3.470248 2.406180 165.901034 
377 1 0.0 2.018231 1.929393 167.295233 
378 2 0.0 0.917546 2.708579 167.359465 
379 1 0.0 2.763712 1.589242 168.357724 
380 2 0.0 4.036978 0.937194 168.192583 
381 1 0.0 2.182186 1.668129 169.740983 
382 2 0.0 1.251366 2.757531 169.771884 
383 2 0.0 1.403071 0.503080 169.987414 
384 1 0.0 3.025663 1.867566 171.084803 
385 3 0.0 3.814287 1.114646 171.121628 
386 3 0.0 3.616686 2.801624 171.028785 
387 1 0.0 2.215053 1.913239 172.421680 
388 2 0.0 1.452662 3.072718 172.393168 
389 2 0.0 1.352179 0.838430 172.448530 
390 1 0.0 2.955853 1.900931 173.803241 
391 3 0.0 3.402652 0.934586 173.859900 
392 3 0.0 3.724110 2.690273 173.734211 
393 1 0.0 2.195547 2.106283 175.115779 
394 2 0.0 1.621776 3.392512 175.126092 
395 2 0.0 1.123419 1.243134 175.122509 
396 1 0.0 3.031672 1.983229 176.531330 
397 3 0.0 3.471052 1.010753 176.420078 
398 2 0.0 4.159244 2.910575 176.457583 
399 1 0.0 2.342583 2.124045 177.950098 
400 2 0.0 1.734493 3.350723 177.960698 
401 2 0.0 1.337378 1.174487 178.031593 
402 1 0.0 3.130836 2.057180 179.263531 
403 3 0.0 3.707499 1.205284 179.213639 
404 3 0.0 3.823579 2.884743 179.335492 
405 1 0.0 2.266346 2.028180 180.624104 
406 2 0.0 1.418772 3.149197 180.589196 
407 2 0.0 1.447606 0.918856 180.591425 
408 1 0.0 2.986331 2.077671 182.057043 
409 3 0.0 3.867584 1.416008 182.093601 
410 3 0.0 3.426196 3.063163 182.084605 
411 1 0.0 2.166641 1.816957 183.335036 
412 2 0.0 1.155524 2.802864 183.360926 
413 2 0.0 1.472078 0.600811 183.214115 
414 1 0.0 2.934595 1.861602 184.708992 
415 2 0.0 3.956247 0.819664 184.663316 
416 3 0.0 3.472004 2.742125 184.742871 
417 1 0.0 2.268658 1.832528 186.210408 
418 2 0.0 1.372363 2.875279 186.334959 
419 2 0.0 1.517848 0.667327 186.274341 
420 1 0.0 3.092394 1.851041 187.481162 
421 3 0.0 3.711294 0.941464 187.527671 
422 3 0.0 3.832603 2.587340 187.477945 
423 1 0.0 2.341877 1.936632 188.924943 
424 2 0.0 1.517028 3.100900 188.889750 
425 2 0.0 1.476410 0.916017 188.911090 
426 1 0.0 3.102608 1.943657 190.246985 
427 3 0.0 3.743602 1.046301 190.170352 
428 3 0.0 3.782089 2.760725 190.297602 
429 1 0.0 2.242745 1.826908 191.570935 
430 2 0.0 1.365308 2.885099 191.543712 
431 2 0.0 1.554913 0.636568 191.464019 
432 1 0.0 2.941236 1.829762 192.941378 
433 3 0.0 3.585074 0.935117 192.871984 
434 3 0.0 3.560239 2.721564 192.913231 
435 1 0.0 2.287536 1.829825 194.387669 
436 2 0.0 1.457244 2.905512 194.474718 
437 2 0.0 1.523626 0.681360 194.457041 
438 1 0.0 3.104687 1.823876 195.727970 
439 3 0.0 3.801261 0.996511 195.717192 
440 3 0.0 3.713445 2.642870 195.805526 
441 1 0.0 2.327180 1.852267 197.084332 
442 2 0.0 1.652085 3.036687 197.063248 
443 2 0.0 1.386792 0.919481 197.108674 
444 1 0.0 3.125080 1.825959 198.501621 
445 3 0.0 3.674250 0.963955 198.551361 
446 3 0.0 3.777911 2.626757 198.560052 
447 1 0.0 2.262431 1.807800 199.750423 
448 2 0.0 1.406414 2.881360 199.633761 
449 2 0.0 1.431948 0.631008 199.702076 
450 1 0.0 2.992844 1.869377 201.191603 
451 2 0.0 3.929618 0.847164 201.266599 
452 3 0.0 3.530040 2.783570 201.204448 
453 1 0.0 2.129300 1.857467 202.535987 
454 2 0.0 1.197591 2.863448 202.533893 
455 2 0.0 1.408215 0.673527 202.621340 
456 1 0.0 2.971675 2.036395 203.789958 
457 3 0.0 3.687946 1.301029 203.867826 
458 3 0.0 3.422070 2.941178 203.646794 
459 1 0.0 2.147438 2.129403 205.185898 
460 2 0.0 1.497445 3.379424 205.177629 
461 2 0.0 1.183053 1.136911 205.139386 
462 1 0.0 2.963623 2.070971 206.514053 
463 3 0.0 3.664135 1.255016 206.501453 
464 3 0.0 3.471494 2.977639 206.661515 
465 1 0.0 2.189601 1.953853 207.865301 
466 2 0.0 1.320512 3.078407 207.914126 
467 2 0.0 1.406921 0.858201 207.820960 
468 1 0.0 2.943450 1.940965 209.265534 
469 3 0.0 3.589200 1.029974 209.265377 
470 2 0.0 3.901188 3.174483 209.433773 
471 1 0.0 2.131984 1.778920 210.520064 
472 2 0.0 1.023131 0.936777 210.423598 
473 1 0.0 2.711655 2.020465 211.710310 
474 3 0.0 3.744289 2.291655 211.733095 
475 1 0.0 1.904357 1.953194 212.943324 
476 2 0.0 1.012095 3.069683 212.913684 
477 2 0.0 1.046477 0.805633 212.892772 
478 1 0.0 2.677556 2.003373 214.374288 
479 3 0.0 3.500582 1.385665 214.387999 
480 3 0.0 3.112304 3.011375 214.368224 
481 1 0.0 1.949666 1.946582 215.753668 
482 2 0.0 0.975810 2.950403 215.793987 
483 2 0.0 1.245138 0.709761 215.729118 
484 1 0.0 2.753331 1.993085 217.094422 
485 2 0.0 3.821505 0.996428 217.084976 
486 3 0.0 3.187660 2.940500 217.247913 
487 1 0.0 1.937577 1.917372 218.525452 
488 2 0.0 1.026407 2.954698 218.558933 
489 2 0.0 1.251509 0.780371 218.567908 
490 1 0.0 2.735207 1.978948 219.827510 
491 3 0.0 3.406754 1.118819 219.761016 
492 3 0.0 3.316134 2.873443 219.730936 
493 1 0.0 1.921221 1.984141 221.198447 
494 2 0.0 1.026310 3.065316 221.162249 
495 2 0.0 1.222309 0.851452 221.176958 
496 1 0.0 2.672272 2.030691 222.561402 
497 3 0.0 3.306885 1.139302 222.581654 
498 3 0.0 3.303752 2.928285 222.579085 
499 1 0.0 1.809534 2.041570 223.828341 
500 2 0.0 1.133382 3.214260 223.777073 
501 2 0.0 0.847091 1.015802 223.776309 
502 1 0.0 2.575001 1.994999 225.250805 
503 3 0.0 3.060224 1.022524 225.307438 
504 2 0.0 3.648663 2.999888 225.232875 
505 1 0.0 1.770674 2.032396 226.631830 
506 2 0.0 1.238464 3.285579 226.758826 
507 2 0.0 0.708691 1.127495 226.542405 
508 1 0.0 2.549299 1.786031 227.945486 
509 3 0.0 2.981649 0.886508 227.812383 
510 3 0.0 3.383997 2.468093 227.991736 
511 1 0.0 1.757644 1.835177 229.318989 
512 2 0.0 0.934044 2.942753 229.301847 
513 2 0.0 1.003516 0.686954 229.330009 
514 1 0.0 2.556529 1.868231 230.681680 
515 3 0.0 3.226771 0.987944 230.659446 
516 3 0.0 3.095430 2.880978 230.696870 
517 1 0.0 1.796393 1.740800 231.992957 
518 2 0.0 0.789379 2.691261 231.951049 
519 2 0.0 1.182472 0.501392 231.977125 
520 1 0.0 2.574202 1.870723 233.384548 
521 2 0.0 3.646817 0.908095 233.419595 
522 3 0.0 3.083579 2.765805 233.290089 
523 1 0.0 1.802994 1.864624 234.821491 
524 2 0.0 0.816462 2.791268 234.760458 
525 2 0.0 1.179624 0.575325 234.896059 
526 1 0.0 2.584213 2.034871 236.157574 
527 3 0.0 3.355204 1.287676 236.207376 
528 3 0.0 3.089095 2.980411 236.055516 
529 1 0.0 1.820822 1.946349 237.505451 
530 2 0.0 0.866466 2.924545 237.514174 
531 2 0.0 1.134297 0.759910 237.495758 
532 1 0.0 2.620726 2.031973 238.907019 
533 3 0.0 3.169970 1.162768 238.901573 
534 3 0.0 3.289151 2.817252 238.830400 
535 1 0.0 1.893385 2.282669 240.226874 
536 2 0.0 1.299116 3.511979 240.150044 
537 2 0.0 0.849818 1.351829 240.277906 
538 1 0.0 2.682637 2.217758 241.620406 
539 3 0.0 3.167308 1.306709 241.668876 
540 2 0.0 3.805486 3.191081 241.615705 
541 1 0.0 1.887770 2.273886 242.973872 
542 2 0.0 1.224325 3.422330 243.082059 
543 2 0.0 0.872704 1.333102 242.888241 
544 1 0.0 2.632482 2.131793 244.305521 
545 3 0.0 3.381735 1.309924 244.283752 
546 3 0.0 3.296775 2.921229 244.370143 
547 1 0.0 1.895463 2.183402 245.707938 
548 2 0.0 1.151634 3.348470 245.786412 
549 2 0.0 0.984657 1.148381 245.678508 
550 1 0.0 2.724368 2.015695 247.063528 
551 3 0.0 3.232868 1.137394 246.929943 
552 3 0.0 3.398888 2.843451 247.257549 
553 1 0.0 1.944714 1.834156 248.409497 
554 2 0.0 0.934761 2.808494 248.488758 
555 2 0.0 1.308981 0.574706 248.380076 
556 1 0.0 2.725174 1.957641 249.804278 
557 2 0.0 3.909928 1.017362 249.809668 
558 3 0.0 3.214975 2.896261 249.812839 
559 1 0.0 1.941627 1.894085 251.170264 
560 2 0.0 0.911757 2.820282 251.116136 
561 2 0.0 1.366818 0.657385 251.287629 
562 1 0.0 2.785378 2.135620 252.480461 
563 3 0.0 3.589012 1.434882 252.541828 
564 3 0.0 3.293655 3.084245 252.429897 
565 1 0.0 4.208527 6.323303 -5.379763 
566 2 0.0 3.036413 6.960945 -5.352223 
567 1 0.0 4.829541 6.010518 -4.215219 
568 3 0.0 5.857200 5.719262 -4.243736 
569 1 0.0 4.134012 5.996433 -2.958616 
570 2 0.0 3.305716 7.096485 -2.866539 
571 2 0.0 3.256581 4.874889 -3.007610 
572 1 0.0 4.920806 5.922817 -1.474775 
573 3 0.0 5.606577 5.132619 -1.419657 
574 3 0.0 5.575581 6.725115 -1.561513 
575 1 0.0 4.164555 6.054142 -0.186437 
576 2 0.0 3.374186 7.120650 -0.332421 
577 2 0.0 3.231826 5.025357 -0.124374 
578 1 0.0 4.876311 6.121617 1.256976 
579 3 0.0 5.546321 5.294505 1.333365 
580 3 0.0 5.533086 6.931875 1.238782 
581 1 0.0 4.031082 6.195524 2.559089 
582 2 0.0 3.262533 7.372218 2.540826 
583 2 0.0 3.157915 5.105484 2.542413 
584 1 0.0 4.773977 6.206552 3.934362 
585 3 0.0 5.584344 5.466808 3.865436 
586 3 0.0 5.153635 7.173416 3.893624 
587 1 0.0 4.085068 6.026132 5.285576 
588 2 0.0 3.057049 6.922612 5.381463 
589 2 0.0 3.448985 4.776503 5.277419 
590 1 0.0 4.912465 6.031811 6.686017 
591 2 0.0 5.936173 4.933159 6.643011 
592 3 0.0 5.490234 6.922285 6.641146 
593 1 0.0 4.128108 5.960577 8.010806 
594 2 0.0 3.139877 6.995702 8.042921 
595 2 0.0 3.437860 4.773989 8.071073 
596 1 0.0 4.872369 6.054793 9.373695 
597 3 0.0 5.704465 5.403853 9.391370 
598 3 0.0 5.263287 7.047946 9.382169 
599 1 0.0 3.998481 5.961870 10.658338 
600 2 0.0 3.095275 6.951487 10.680884 
601 2 0.0 3.293096 4.768445 10.602941 
602 1 0.0 4.712943 5.967511 12.106157 
603 3 0.0 5.410264 5.157436 12.180342 
604 3 0.0 5.351143 6.806980 12.153955 
605 1 0.0 3.929430 5.994384 13.403770 
606 2 0.0 3.097124 7.129308 13.253668 
607 2 0.0 3.104896 4.845713 13.339320 
608 1 0.0 4.703143 6.070619 14.756713 
609 3 0.0 5.451607 5.303913 14.809157 
610 2 0.0 5.552535 7.198260 14.744207 
611 1 0.0 3.903168 6.074152 16.214123 
612 2 0.0 2.998548 7.175212 16.233718 
613 2 0.0 3.175388 4.920250 16.277849 
614 1 0.0 4.738381 6.076849 17.463250 
615 3 0.0 5.383086 5.291744 17.389973 
616 3 0.0 5.174135 7.054305 17.414852 
617 1 0.0 3.920298 6.031991 18.846127 
618 2 0.0 3.058259 7.135047 18.898806 
619 2 0.0 3.111586 4.892335 18.797769 
620 1 0.0 4.777243 6.006153 20.171376 
621 3 0.0 5.501564 5.194627 20.090289 
622 3 0.0 5.300614 6.932177 20.152286 
623 1 0.0 3.976990 5.791786 21.513618 
624 2 0.0 2.936927 6.729158 21.530572 
625 2 0.0 3.339073 4.522856 21.357747 
626 1 0.0 4.773589 5.820288 22.867982 
627 2 0.0 5.839217 4.833485 22.828349 
628 3 0.0 5.034564 6.831908 22.930001 
629 1 0.0 3.934859 5.590212 24.250571 
630 2 0.0 2.964237 6.575645 24.333471 
631 2 0.0 3.327239 4.372569 24.159050 
632 1 0.0 4.690232 5.651599 25.591930 
633 3 0.0 5.309940 4.783093 25.629736 
634 3 0.0 5.289341 6.486679 25.503260 
635 1 0.0 3.933669 5.817473 26.980648 
636 2 0.0 3.401695 7.120046 26.995601 
637 2 0.0 2.849939 4.960615 26.959810 
638 1 0.0 4.678441 5.676002 28.398606 
639 3 0.0 5.108250 4.736919 28.392921 
640 3 0.0 5.488535 6.357135 28.427089 
641 1 0.0 3.973874 5.872235 29.717889 
642 2 0.0 3.465128 7.206412 29.678250 
643 2 0.0 2.870462 5.038955 29.698717 
644 1 0.0 4.756277 5.710143 31.155568 
645 3 0.0 5.120501 4.720590 31.151148 
646 2 0.0 5.932557 6.514832 31.127470 
647 1 0.0 3.970039 5.904376 32.517478 
648 2 0.0 3.323872 7.151365 32.478697 
649 2 0.0 2.983032 4.927080 32.632097 
650 1 0.0 4.735723 5.803855 33.854174 
651 3 0.0 5.172784 4.830106 33.841092 
652 3 0.0 5.603673 6.471212 33.675056 
653 1 0.0 4.018883 6.055623 35.196774 
654 2 0.0 3.232759 7.163538 35.164936 
655 2 0.0 3.160520 5.008669 35.407424 
656 1 0.0 4.971682 6.109346 36.558531 
657 3 0.0 5.526240 5.218785 36.515277 
658 3 0.0 5.597810 6.899018 36.500151 
659 1 0.0 4.291179 6.226710 37.859389 
660 2 0.0 3.108933 6.885376 37.955493 
661 1 0.0 4.964083 5.674617 38.899165 
662 2 0.0 6.148563 4.943750 38.699360 
663 1 0.0 4.287376 5.491676 40.214358 
664 2 0.0 3.230005 6.337999 40.363362 
665 2 0.0 3.743167 4.182051 40.319547 
666 1 0.0 5.123008 5.656405 41.571191 
667 3 0.0 5.791831 4.890487 41.611580 
668 3 0.0 5.720417 6.519988 41.449187 
669 1 0.0 4.419918 5.804394 42.939799 
670 2 0.0 3.632407 6.951339 42.928311 
671 2 0.0 3.572605 4.700634 43.085335 
672 1 0.0 5.319561 5.914753 44.245524 
673 3 0.0 5.860976 5.010840 44.306983 
674 3 0.0 5.997870 6.767433 44.150239 
675 1 0.0 4.488535 6.085917 45.516114 
676 2 0.0 3.891692 7.340451 45.386226 
677 2 0.0 3.447048 5.166243 45.536688 
678 1 0.0 5.297704 6.084269 46.918430 
679 3 0.0 5.964584 5.245151 46.969087 
680 2 0.0 6.182762 7.170803 46.922797 
681 1 0.0 4.454631 6.129197 48.306773 
682 2 0.0 3.755691 7.286769 48.324198 
683 2 0.0 3.575440 5.076710 48.295780 
684 1 0.0 5.199500 6.052417 49.596506 
685 3 0.0 5.866612 5.188431 49.605003 
686 3 0.0 5.791402 6.941412 49.705652 
687 1 0.0 4.412903 6.058425 51.004697 
688 2 0.0 3.595453 7.142275 51.028948 
689 2 0.0 3.535593 4.943594 51.016031 
690 1 0.0 5.184199 6.119771 52.357806 
691 3 0.0 5.934869 5.382500 52.376583 
692 3 0.0 5.677786 7.026724 52.385139 
693 1 0.0 4.357593 5.953701 53.633712 
694 2 0.0 3.404476 6.898488 53.669248 
695 2 0.0 3.715803 4.735422 53.535395 
696 1 0.0 5.119789 5.965160 55.128626 
697 2 0.0 6.180397 5.015515 55.178716 
698 3 0.0 5.801744 6.719431 54.995364 
699 1 0.0 4.335432 5.983821 56.478548 
700 2 0.0 3.389710 7.005630 56.446749 
701 2 0.0 3.646216 4.768267 56.606971 
702 1 0.0 5.089608 6.160585 57.781864 
703 3 0.0 5.912276 5.451366 57.796866 
704 3 0.0 5.549053 7.141049 57.727304 
705 1 0.0 4.356846 6.120215 59.192685 
706 2 0.0 3.535298 7.232768 59.214849 
707 2 0.0 3.509745 5.049066 59.234697 
708 1 0.0 5.158751 6.152166 60.559280 
709 3 0.0 5.926013 5.427235 60.546572 
710 3 0.0 5.737996 7.020430 60.550165 
711 1 0.0 4.439072 6.120350 61.893287 
712 2 0.0 3.443327 7.038243 61.820179 
713 2 0.0 3.784562 4.847255 61.928546 
714 1 0.0 5.145417 6.202803 63.328750 
715 3 0.0 5.934633 5.482457 63.359933 
716 3 0.0 5.670125 7.113978 63.414293 
717 1 0.0 4.357014 6.050138 64.639446 
718 2 0.0 3.397664 7.018664 64.652100 
719 2 0.0 3.729511 4.837095 64.598640 
720 1 0.0 5.175759 6.217813 65.970043 
721 3 0.0 5.903785 5.412647 65.983879 
722 3 0.0 5.789505 7.087009 65.941963 
723 1 0.0 4.452020 6.202122 67.338143 
724 2 0.0 3.573303 7.286193 67.333797 
725 2 0.0 3.609625 5.118515 67.326627 
726 1 0.0 5.224435 6.194584 68.765232 
727 3 0.0 5.907652 5.417476 68.746720 
728 3 0.0 5.725871 7.088244 68.855319 
729 1 0.0 4.358935 6.037857 70.003836 
730 2 0.0 3.386803 6.990958 69.938180 
731 2 0.0 3.736616 4.792132 69.906490 
732 1 0.0 5.090486 6.114584 71.441222 
733 2 0.0 6.168560 5.151703 71.482504 
734 3 0.0 5.639140 7.060123 71.424120 
735 1 0.0 4.351017 6.071095 72.857565 
736 2 0.0 3.319052 7.037614 72.882141 
737 2 0.0 3.716511 4.826796 73.009112 
738 1 0.0 5.138507 6.331440 74.128496 
739 3 0.0 5.916597 5.495444 74.244732 
740 3 0.0 5.756790 7.218329 74.029648 
741 1 0.0 4.314343 6.434431 75.459402 
742 2 0.0 3.645866 7.656314 75.477552 
743 2 0.0 3.312653 5.464080 75.486858 
744 1 0.0 5.046948 6.425251 76.881759 
745 3 0.0 5.607052 5.493957 76.890695 
746 3 0.0 5.676360 7.285198 76.940001 
747 1 0.0 4.112355 6.544978 78.097575 
748 2 0.0 3.520741 7.806600 78.071264 
749 2 0.0 3.144810 5.615657 78.018041 
750 1 0.0 4.864264 6.339664 79.604940 
751 3 0.0 5.043093 5.291769 79.581529 
752 2 0.0 6.185068 6.971923 79.563992 
753 1 0.0 4.212044 6.618349 80.911975 
754 2 0.0 3.453776 7.735711 81.097475 
755 1 0.0 4.717003 6.061052 82.030982 
756 3 0.0 5.550061 5.409322 81.945669 