LAMMPS (2 Aug 2023 - Development - patch_2Aug2023-289-gafabb279a3)
  using 1 OpenMP thread(s) per MPI task

# REAX potential for
# .....

#package         kokkos neigh half comm no newton on

boundary        s p p
units           real

atom_style      charge
#read_data       final.lmpdata nocoeff
read_data       lmp.data nocoeff
Reading data file ...
  triclinic box = (0 0 0) to (22.828464 8.088404 259.21693) with tilt (0 0 0)
  2 by 1 by 16 MPI processor grid
  reading atoms ...
  4512 atoms
  read_data CPU = 0.094 seconds


pair_style      reax/c NULL checkqeq no
pair_modify     shift yes
pair_coeff      * * ../../../ForceFiledFiles/ffield.reax.FC C F H
Reading potential file ../../../ForceFiledFiles/ffield.reax.FC with DATE: 2013-06-28
WARNING: Changed valency_val to valency_boc for X (src/REAXFF/reaxff_ffield.cpp:296)

neighbor        2. bin
neigh_modify    every 10 delay 0 check no
fix             q all qeq/reax 1 0.0 10.0 1e-6 reax/c

variable        dt_MD equal 0.1
variable        dt_MIN equal 10*v_dt_MD
timestep        ${dt_MD}
timestep        0.1
thermo_style    custom step temp epair etotal press fmax fnorm density
thermo          20
variable        Tdamp equal 100*dt
variable        Pdamp equal 100*dt
variable        T0 equal 300
variable        T1 equal 300
thermo_style    custom step temp epair etotal press fmax fnorm density vol
#dump            dcd all dcd 4 dump.dcd
#dump_modify     dcd unwrap yes


dump            xyz_form all xyz 100 dump.xyz
dump_modify     xyz_form sort id

timestep        ${dt_MD}
timestep        0.1

fix             1 all qeq/reaxff 1 0.0 10.0 1.0e-6 reaxff maxiter 400
fix             2 all nvt temp ${T0} ${T1} ${Tdamp}
fix             2 all nvt temp 300 ${T1} ${Tdamp}
fix             2 all nvt temp 300 300 ${Tdamp}
fix             2 all nvt temp 300 300 10
fix             3 all efield 1.0e-1 0.0 0.0
fix             4 all wall/reflect xlo EDGE xhi EDGE
run             40000

CITE-CITE-CITE-CITE-CITE-CITE-CITE-CITE-CITE-CITE-CITE-CITE-CITE

Your simulation uses code contributions which should be cited:

- pair reaxff command: doi:10.1016/j.parco.2011.08.005

@Article{Aktulga12,
 author = {H. M. Aktulga and J. C. Fogarty and S. A. Pandit and A. Y. Grama},
 title = {Parallel Reactive Molecular Dynamics: {N}umerical Methods and Algorithmic Techniques},
 journal = {Parallel Computing},
 year =    2012,
 volume =  38,
 number =  {4--5},
 pages =   {245--259}
}

- fix qeq/reaxff command: doi:10.1016/j.parco.2011.08.005

@Article{Aktulga12,
 author = {H. M. Aktulga and J. C. Fogarty and S. A. Pandit and A. Y. Grama},
 title = {Parallel Reactive Molecular Dynamics: {N}umerical Methods and Algorithmic Techniques},
 journal = {Parallel Computing},
 year =    2012,
 volume =  38,
 pages =   {245--259}
}

CITE-CITE-CITE-CITE-CITE-CITE-CITE-CITE-CITE-CITE-CITE-CITE-CITE

Neighbor list info ...
  update: every = 10 steps, delay = 0 steps, check = no
  max neighbors/atom: 2000, page size: 100000
  master list distance cutoff = 12
  ghost atom cutoff = 12
  binsize = 6, bins = 4 2 44
  3 neighbor lists, perpetual/occasional/extra = 3 0 0
  (1) pair reax/c, perpetual
      attributes: half, newton off, ghost
      pair build: half/bin/newtoff/ghost
      stencil: full/ghost/bin/3d
      bin: standard
  (2) fix qeq/reax, perpetual, copy from (1)
      attributes: half, newton off
      pair build: copy
      stencil: none
      bin: none
  (3) fix qeq/reaxff, perpetual, copy from (1)
      attributes: half, newton off
      pair build: copy
      stencil: none
      bin: none
Per MPI rank memory allocation (min/avg/max) = 54.51 | 55.76 | 57.27 Mbytes
   Step          Temp          E_pair         TotEng         Press           Fmax          Fnorm         Density         Volume    
         0   0             -501989.17     -501989.17     -13143.757      257.49895      3747.4402      2.1701757      39978.056    
        20   82.119012     -503081.92     -501977.72      1968.3321      216.02602      2672.1789      2.170008       39981.145    
        40   137.78063     -503784.41     -501931.75     -14575.826      140.15925      2127.1476      2.1703041      39975.689    
        60   162.61008     -504041.97     -501855.45     -13702.064      156.57444      2607.8331      2.1705409      39971.329    
        80   171.76722     -504074.25     -501764.59      6227.2369      275.22291      2883.5164      2.1707435      39967.599    
       100   134.7185      -503493.89     -501682.41     -13324.094      173.73896      2842.6355      2.1708349      39965.916    
       120   179.16121     -503999.14     -501590.06     -14368.188      178.82381      2630.6606      2.1709096      39964.541    
       140   175.79248     -503850.89     -501487.11      5532.1869      228.65569      2955.6865      2.1713219      39956.952    
       160   173.18226     -503719.75     -501391.07     -13480.674      221.65159      2884.9945      2.1718632      39946.993    
       180   190.12425     -503840.71     -501284.21     -5221.8638      254.39012      2772.9765      2.1725856      39933.71     
       200   165.16505     -503400.09     -501179.21     -8564.115       244.71851      3179.2218      2.1732319      39921.834    
       220   214.77        -503956.22     -501068.33     -8358.4779      221.22245      2716.3139      2.1741017      39905.863    
       240   208.16965     -503746.8      -500947.66     -9318.4199      254.40985      2928.9756      2.1750367      39888.708    
       260   196.7451      -503477.21     -500831.69     -10218.086      224.55664      3101.0636      2.1756103      39878.191    
       280   226.59223     -503755.02     -500708.16     -21252.581      283.7755       2845.4902      2.175524       39879.773    
       300   211.96535     -503439.67     -500589.49     -11570.744      223.6269       3208.6183      2.1753848      39882.326    
       320   250.50454     -503833.14     -500464.74     -4020.6374      240.88109      3060.3777      2.1749229      39890.796    
       340   250.90676     -503706.54     -500332.74     -13393.731      196.87576      2949.1757      2.1744787      39898.944    
       360   246.24279     -503526.23     -500215.14     -10273.099      298.51873      3171.0364      2.1726197      39933.083    
       380   280.37271     -503855.65     -500085.63     -13843.306      241.91219      3083.4984      2.1716613      39950.707    
       400   268.18267     -503575.73     -499969.63     -15676.806      286.5662       3302.0107      2.1717151      39949.716    
       420   297.06732     -503854.95     -499860.45     -16233.143      244.81748      2966.1044      2.1697985      39985.005    
       440   290.2155      -503658.18     -499755.81     -4247.9205      337.33709      3202.3752      2.1699266      39982.645    
       460   270.27252     -503297.76     -499663.56     -3871.1608      289.17192      3324.4052      2.1721225      39942.225    
       480   282.44998     -503361.71     -499563.77     -5975.5268      234.80347      3289.3825      2.1719567      39945.274    
       500   271.27005     -503112.62     -499465.01     -8319.4605      271.628        3416.0568      2.170551       39971.143    
       520   311.06588     -503544.19     -499361.46     -16285.295      198.4846       3099.559       2.1713093      39957.183    
       540   336.02774     -503789.36     -499270.99     -11576.893      268.502        3112.8841      2.1705953      39970.327    
       560   334.32051     -503722.05     -499226.63     -14893.129      346.82299      3250.7054      2.1701124      39979.222    
       580   337.25366     -503758.14     -499223.28     -17229.962      318.80551      3124.579       2.1698355      39984.323    
       600   304.64381     -503352.95     -499256.58     -12727.574      299.54767      3380.4268      2.1709655      39963.511    
       620   310.87132     -503480.65     -499300.54     -13391.472      318.32668      3355.1197      2.1708859      39964.976    
       640   311.76467     -503545.89     -499353.77     -14574.902      321.54196      3197.7794      2.1711471      39960.169    
       660   301.31237     -503465.34     -499413.76     -7867.1464      341.89418      3394.5745      2.170052       39980.334    
       680   295.75142     -503450.91     -499474.11     -18961.948      301.66147      3287.5674      2.1704479      39973.042    
       700   284.21039     -503342.1      -499520.48     -18424.324      234.2631       3248.3875      2.1698809      39983.487    
       720   315.21795     -503793.4      -499554.85     -14152.731      248.95181      3094.5908      2.1700702      39979.998    
       740   323.33498     -503952.2      -499604.5      -18000.008      269.59098      3124.6749      2.1698562      39983.941    
       760   317.05518     -503941.09     -499677.83     -11823.04       256.4975       3107.0043      2.1700752      39979.907    
       780   303.67076     -503842.89     -499759.6      -14769.349      209.96546      3125.6911      2.169814       39984.719    
       800   287.64699     -503697.54     -499829.72     -16935.102      262.76123      3308.3571      2.1696762      39987.259    
       820   304.86996     -503988.1      -499888.69     -11270.945      227.30549      3098.4339      2.170037       39980.611    
       840   302.09072     -504009.49     -499947.45     -7506.453       352.39388      3160.255       2.1700152      39981.012    
       860   303.75319     -504093.29     -500008.89     -10890.995      274.84503      3090.9852      2.1699574      39982.077    
       880   298.45738     -504080.53     -500067.34     -16755.286      201.99784      3107.3536      2.170122       39979.044    
       900   287.43886     -503980.58     -500115.55     -25274.866      263.07367      3184.554       2.1698613      39983.849    
       920   297.38822     -504150.44     -500151.63     -13888.218      308.85368      3130.7573      2.1697881      39985.197    
       940   285.56076     -504023.69     -500183.91     -12851.789      286.23853      3228.0468      2.169961       39982.011    
       960   288.74808     -504082.7      -500200.07     -19655.657      267.23016      3050.1712      2.1698238      39984.539    
       980   286.99645     -504066.91     -500207.83     -9324.8043      346.54901      3203.0897      2.169877       39983.559    
      1000   281.42382     -503981.48     -500197.33     -20373.961      259.3747       3222.8191      2.169794       39985.088    
      1020   295.19883     -504140.74     -500171.36     -11730.136      346.56263      3232.8955      2.1702398      39976.874    
      1040   290.12599     -504039.28     -500138.12     -12590.593      263.10031      3263.9904      2.1698525      39984.01     
      1060   296.80679     -504089.14     -500098.14     -21328.462      304.50824      3164.2139      2.1696919      39986.969    
      1080   298.42962     -504065.74     -500052.92     -16994.471      205.51966      3175.056       2.1697665      39985.594    
      1100   295.9366      -503988.66     -500009.37     -14642.133      314.23339      3332.3593      2.170143       39978.658    
      1120   316.8909      -504225.33     -499964.28     -30263.902      237.71838      3130.5489      2.1698125      39984.747    
      1140   321.08291     -504250.77     -499933.35     -14782.196      296.34354      3270.6932      2.1701161      39979.154    
      1160   326.43951     -504320.29     -499930.84     -7771.8834      268.13519      3265.5335      2.1698729      39983.634    
      1180   322.79429     -504294.1      -499953.67     -12701.929      347.81579      3255.84        2.1699405      39982.389    
      1200   311.2322      -504185.3      -500000.34     -18980.914      292.6471       3246.646       2.1698363      39984.309    
      1220   316.69124     -504317.34     -500058.97     -25890.847      238.56079      3031.7246      2.1699536      39982.148    
      1240   303.74559     -504214.17     -500129.87     -20174.359      378.05284      3260.475       2.1698626      39983.824    
      1260   292.24801     -504123.32     -500193.63     -20374.158      338.01752      3128.8184      2.1700894      39979.646    
      1280   284.93045     -504076.7      -500245.4      -25143.994      278.43609      3223.7173      2.1703303      39975.208    
      1300   281.80166     -504069.25     -500280.03     -16911.671      301.22682      3204.4167      2.1699859      39981.552    
      1320   296.41949     -504284.95     -500299.16     -20587.089      243.30526      2999.5996      2.1696898      39987.008    
      1340   298.1485      -504315.62     -500306.58     -22258.072      230.88312      3073.2002      2.169708       39986.674    
      1360   299.32613     -504339.9      -500315.03     -17746.237      383.06963      3183.2896      2.1697584      39985.744    
      1380   302.07094     -504387.96     -500326.19     -25199.948      395.21816      3145.1487      2.1697288      39986.29     
      1400   299.08048     -504361.03     -500339.47     -24254.311      618.77247      3264.9376      2.1698654      39983.772    
      1420   303.7082      -504436.52     -500352.72     -14889.174      355.18489      3171.0773      2.1700514      39980.344    
      1440   300.38917     -504405.75     -500366.59     -18874.2        427.97216      3096.2887      2.1698294      39984.436    
      1460   294.57125     -504342.77     -500381.83     -15051.669      268.99691      3116.5933      2.1698534      39983.994    
      1480   296.47107     -504374.82     -500388.34     -22512.408      212.49374      2968.9807      2.1696987      39986.845    
      1500   294.78519     -504358.31     -500394.5      -19001.724      276.95119      3041.6325      2.1700709      39979.986    
      1520   290.897       -504306.77     -500395.25     -19450.279      402.60265      3100.2537      2.1698846      39983.418    
      1540   283.45556     -504197.74     -500386.27     -19154.693      288.29109      3124.7073      2.1699193      39982.779    
      1560   278.65603     -504104.75     -500357.82     -23089.557      239.81877      3138.3411      2.1697883      39985.193    
      1580   286.99873     -504172.36     -500313.26     -26612.705      389.64243      3062.6478      2.1698809      39983.486    
      1600   298.18104     -504264.1      -500254.63     -22808.129      204.31018      2901.947       2.1701858      39977.87     
      1620   303.99376     -504283.51     -500195.88     -23148.379      215.93308      2989.0307      2.1698881      39983.355    
      1640   307.54301     -504279.54     -500144.18     -24330.541      300.60473      3031.1567      2.1696903      39986.999    
      1660   309.07364     -504255.89     -500099.95     -22676.354      286.77953      3040.5552      2.1696834      39987.126    
      1680   308.44065     -504216.69     -500069.26     -26201.094      262.66201      3042.2789      2.169872       39983.651    
      1700   307.05438     -504178.34     -500049.55     -28760.765      192.17651      3050.2813      2.1701348      39978.808    
      1720   302.03988     -504098.31     -500036.95     -22421.442      223.38028      3150.4271      2.1697323      39986.225    
      1740   301.56636     -504079.39     -500024.39     -22052.948      167.97305      3052.9596      2.1699766      39981.724    
      1760   304.98297     -504117.93     -500017        -16962.64       301.15961      3078.5227      2.1697527      39985.848    
      1780   305.17112     -504115.86     -500012.39     -20403.398      271.80724      3136.3273      2.1696695      39987.382    
      1800   311.18342     -504197.14     -500012.83     -21309.924      221.60789      3117.1562      2.1698464      39984.123    
      1820   313.00252     -504235.88     -500027.11     -18003.54       278.99135      3228.1056      2.1699172      39982.817    
      1840   319.47093     -504352.98     -500057.23     -24409.475      350.0915       3118.3157      2.1696785      39987.217    
      1860   319.37783     -504401.77     -500107.28     -21105.918      254.19729      3013.7799      2.1696925      39986.959    
      1880   304.8869      -504273.05     -500173.41     -23612.913      187.5859       3061.5417      2.1696889      39987.026    
      1900   295.74873     -504214.68     -500237.92     -21579.476      278.52376      3083.4888      2.1697072      39986.687    
      1920   285.34096     -504124.87     -500288.05     -23152.708      246.50698      3126.8003      2.1697498      39985.902    
      1940   285.21451     -504158.99     -500323.87     -20692.654      309.02883      3073.1749      2.1697198      39986.456    
      1960   287.24086     -504202.26     -500339.9      -18958.922      298.75588      3032.7869      2.1697601      39985.714    
      1980   283.48557     -504159.38     -500347.51     -23862.812      218.59031      3027.8113      2.1698603      39983.866    
      2000   285.35985     -504171.53     -500334.46     -24858.547      325.7876       3117.9059      2.1697515      39985.871    
      2020   281.1336      -504088.43     -500308.18     -29374.702      266.28484      3190.2804      2.1697041      39986.745    
      2040   285.5457      -504104.61     -500265.04     -26084.739      298.05724      3121.6596      2.1697914      39985.135    
      2060   293.27261     -504153.34     -500209.87     -23454.015      412.80918      3062.5433      2.1696939      39986.933    
      2080   294.77443     -504114.32     -500150.66     -22313.308      232.12305      3094.725       2.1697685      39985.558    
      2100   303.30743     -504168.83     -500090.43     -21150.374      264.65534      3101.0689      2.1697434      39986.021    
      2120   302.20904     -504096.89     -500033.26     -23009.26       376.71529      3202.9284      2.1697794      39985.356    
      2140   300.94688     -504030.95     -499984.29     -22412.672      274.87922      3217.296       2.1697076      39986.68     
      2160   304.75966     -504033.27     -499935.34     -24329.878      222.17902      3069.9861      2.1697342      39986.189    
      2180   295.42564     -503870        -499897.58     -23840.448      279.26349      3244.7167      2.1697577      39985.756    
      2200   298.26703     -503865.45     -499854.83     -20747.235      392.66254      3224.0801      2.1696988      39986.842    
      2220   298.52298     -503827.01     -499812.94     -24351.2        274.17627      3160.6724      2.1697251      39986.359    
      2240   293.21681     -503715.61     -499772.89     -19698.121      264.81171      3263.2454      2.1697229      39986.398    
      2260   299.31738     -503750.4      -499725.65     -19079.46       253.06525      3269.8358      2.1698182      39984.643    
      2280   300.77955     -503724.64     -499680.22     -22273.985      196.84757      3186.9862      2.1698201      39984.607    
      2300   307.3592      -503770.75     -499637.87     -16070.995      226.46976      3206.4064      2.1696905      39986.995    
      2320   309.06861     -503756.25     -499600.38     -19235.628      191.63382      3268.303       2.1697484      39985.928    
      2340   305.01178     -503678.94     -499577.62     -22752.975      267.07842      3310.3756      2.1697728      39985.479    
      2360   306.6729      -503681.89     -499558.23     -21742.398      292.00035      3263.7607      2.1697732      39985.471    
      2380   302.38083     -503614.1      -499548.16     -23354.362      215.51165      3246.0743      2.1697051      39986.727    
      2400   304.3671      -503632.67     -499540.02     -25181.748      260.29189      3243.3612      2.1698276      39984.469    
      2420   307.90533     -503676.6      -499536.37     -15927.547      313.16485      3262.5863      2.1697332      39986.209    
      2440   306.23843     -503656.94     -499539.12     -24731.04       225.51453      3164.7047      2.1697288      39986.29     
      2460   308.83639     -503702.72     -499549.97     -25511.744      290.03591      3177.9951      2.1696824      39987.146    
      2480   303.22719     -503648.47     -499571.15     -16463.935      448.11412      3319.6605      2.1696996      39986.827    
      2500   299.06647     -503615.36     -499593.99     -27459.183      315.18413      3240.7468      2.1696816      39987.159    
      2520   296.27284     -503599.44     -499615.62     -23249.001      296.49762      3273.0131      2.1696716      39987.344    
      2540   292.13094     -503561.44     -499633.32     -20704.623      287.35625      3317.0067      2.1697085      39986.663    
      2560   293.33262     -503586.84     -499642.56     -25829.561      215.20905      3154.7426      2.1697282      39986.3      
      2580   288.61542     -503524.03     -499643.18     -21913.208      312.87974      3228.0699      2.1697441      39986.007    
      2600   285.00957     -503467.46     -499635.1      -20984.978      289.18606      3308.2749      2.1697399      39986.085    
      2620   289.44404     -503502.45     -499610.46     -15717.084      227.88135      3287.5258      2.169675       39987.28     
      2640   294.88009     -503537.78     -499572.69     -18762.891      236.8419       3176.1907      2.169763       39985.66     
      2660   303.14923     -503610.51     -499534.23     -19816.921      241.12196      3257.1593      2.1697855      39985.244    
      2680   307.50041     -503631.5      -499496.71     -20217.05       224.65417      3217.887       2.1696889      39987.024    
      2700   308.41937     -503616.33     -499469.19     -24755.881      256.39291      3302.9286      2.1697776      39985.39     
      2720   310.53951     -503626.44     -499450.79     -19563.609      286.86854      3358.7835      2.169684       39987.116    
      2740   313.47232     -503660.16     -499445.08     -20237.125      212.23287      3237.1465      2.1697132      39986.576    
      2760   313.97829     -503674.26     -499452.37     -14654.385      214.208        3232.3816      2.1696915      39986.977    
      2780   307.68526     -503612.02     -499474.75     -22253.175      257.15517      3270.7333      2.1697274      39986.316    
      2800   299.09994     -503525.98     -499504.15     -18028.245      322.9349       3378.2817      2.169706       39986.71     
      2820   297.83357     -503536.61     -499531.81     -24204.34       242.19715      3289.4126      2.1697862      39985.233    
      2840   299.34214     -503583.77     -499558.69     -27991.837      266.40008      3242.8016      2.1698391      39984.257    
      2860   297.9342      -503588.79     -499582.64     -20655.545      449.92513      3378.7916      2.169721       39986.434    
      2880   296.39807     -503591.58     -499606.09     -20741.599      295.05242      3301.448       2.1698054      39984.879    
      2900   298.51815     -503638.91     -499624.9      -22900.778      226.33331      3250.468       2.1698211      39984.589    
      2920   297.40125     -503637.87     -499638.89     -20226.89       250.26926      3249.8892      2.1696754      39987.274    
      2940   294.55273     -503613.97     -499653.28     -23628.482      377.60884      3331.5168      2.1697808      39985.331    
      2960   290.69771     -503566.66     -499657.81     -23398.641      232.52823      3253.5429      2.1698022      39984.936    
      2980   288.17385     -503530.44     -499655.53     -22010.68       255.05747      3291.515       2.1697898      39985.166    
      3000   295.28635     -503611.8      -499641.25     -25539.092      330.08258      3275.1055      2.1697047      39986.733    
      3020   299.48982     -503649.84     -499622.77     -21077.187      301.08682      3271.8548      2.1698534      39983.994    
      3040   300.00323     -503635.99     -499602.02     -21273.888      355.19325      3360.4263      2.1697962      39985.047    
      3060   299.94874     -503614.24     -499580.99     -14608.251      338.27854      3385.6415      2.170067       39980.058    
      3080   297.59608     -503560.93     -499559.33     -16217.128      352.3275       3426.0831      2.169737       39986.138    
      3100   303.66482     -503621.99     -499538.78     -23573.746      351.34991      3331.0379      2.1697062      39986.705    
      3120   304.45922     -503613.59     -499519.7      -20180.668      409.90184      3398.3496      2.1698175      39984.654    
      3140   307.96806     -503648.4      -499507.33     -13799.736      383.64253      3344.5464      2.1697774      39985.394    
      3160   306.15872     -503618.14     -499501.4      -22687.596      383.79895      3368.952       2.1700035      39981.228    
      3180   298.42239     -503516.34     -499503.62     -18985.6        232.3262       3351.3536      2.1701522      39978.488    
      3200   301.05123     -503554.68     -499506.61     -22132.418      204.3697       3282.9755      2.1699244      39982.685    
      3220   294.63059     -503465.98     -499504.25     -22213.092      240.76765      3329.4022      2.1697393      39986.096    
      3240   294.60179     -503459.63     -499498.29     -17895.76       412.36797      3415.9304      2.1697556      39985.795    
      3260   297.99398     -503496.46     -499489.51     -22263.611      263.27922      3264.9525      2.1697713      39985.507    
      3280   294.92567     -503440.92     -499475.22     -25856.375      449.63046      3379.742       2.1697301      39986.266    
      3300   303.76609     -503544.31     -499459.74     -25290.165      295.87409      3257.4435      2.1697756      39985.426    
      3320   302.88285     -503521.08     -499448.39     -24709.314      507.14665      3470.448       2.1696658      39987.451    
      3340   308.27537     -503582.47     -499437.27     -24791.034      310.54415      3333.0567      2.1697496      39985.906    
      3360   310.03867     -503606.62     -499437.7      -16833.099      504.38199      3459.8519      2.1696794      39987.2      
      3380   307.53492     -503583.29     -499448.04     -22140.994      314.34265      3440.5122      2.1696813      39987.166    
      3400   314.92464     -503701.91     -499467.29     -16583.785      429.8597       3337.2695      2.1696848      39987.101    
      3420   306.54177     -503621.06     -499499.17     -20242.946      364.23859      3344.8635      2.1696825      39987.142    
      3440   303.25741     -503618.23     -499540.5      -24100.995      248.92533      3366.2866      2.1697231      39986.394    
      3460   296.31782     -503567.83     -499583.41     -21306.28       611.21457      3470.1965      2.1697357      39986.162    
      3480   287.74884     -503485.14     -499615.95     -18826.448      351.98126      3417.7424      2.1698388      39984.262    
      3500   292.98678     -503578.03     -499638.4      -19923.039      395.51367      3371.2359      2.1697535      39985.835    
      3520   291.60204     -503570.19     -499649.18     -22526.032      311.90937      3348.5975      2.1697636      39985.648    
      3540   297.95688     -503663.7      -499657.25     -17216.668      387.61509      3345.8429      2.1699364      39982.464    
      3560   298.81541     -503676.47     -499658.47     -15933.2        369.89398      3335.908       2.1697553      39985.802    
      3580   294.21367     -503614.48     -499658.35     -20897.815      312.50784      3349.9914      2.1698411      39984.22     
      3600   295.60036     -503628.85     -499654.08     -22795.349      249.54762      3308.2681      2.1696995      39986.83     
      3620   295.67706     -503621.78     -499645.98     -20092.979      280.24381      3221.2865      2.1698845      39983.42     
      3640   294.39833     -503589.47     -499630.86     -22954.765      394.43082      3332.816       2.1698932      39983.26     
      3660   293.27031     -503553.56     -499610.12     -22780.125      291.90041      3328.1201      2.1698855      39983.402    
      3680   293.04859     -503526.14     -499585.68     -19511.582      466.81542      3474.1798      2.1697777      39985.389    
      3700   300.89139     -503600.48     -499554.56     -19261.011      397.40408      3416.504       2.1699106      39982.939    
      3720   307.8601      -503660.62     -499521        -20418.016      302.31609      3368.7232      2.1698476      39984.101    
      3740   312.93679     -503706.72     -499498.83     -26157.131      344.75781      3303.2933      2.1698387      39984.264    
      3760   310.29371     -503660.97     -499488.63     -25871.871      513.26869      3476.5083      2.1698588      39983.894    
      3780   308.36907     -503637.76     -499491.29     -24169.868      378.97986      3318.8524      2.1698157      39984.687    
      3800   307.18249     -503634.18     -499503.67     -25003.361      336.21691      3367.5831      2.1696943      39986.925    
      3820   304.90703     -503624.07     -499524.15     -17160.618      367.1494       3447.1418      2.1699325      39982.536    
      3840   301.38892     -503599.71     -499547.1      -23476.5        296.84835      3393.5561      2.1697116      39986.607    
      3860   298.16434     -503581.8      -499572.55     -17507.404      320.06366      3396.0118      2.1697364      39986.149    
      3880   295.36276     -503561.65     -499590.08     -24013.808      249.63793      3343.2332      2.16973        39986.268    
      3900   295.52223     -503585.65     -499611.93     -18889.596      351.84892      3384.2569      2.1699067      39983.011    
      3920   294.9783      -503589.41     -499623        -22828.83       316.14221      3379.2124      2.1696972      39986.871    
      3940   295.94325     -503608.11     -499628.73     -24406.397      235.25425      3291.4291      2.1696997      39986.825    
      3960   300.33451     -503671.77     -499633.34     -22584.617      408.50302      3283.7244      2.1699886      39981.502    
      3980   304.85749     -503735.99     -499636.74     -20474.347      330.2494       3294.7222      2.1698363      39984.308    
      4000   303.89192     -503731.45     -499645.18     -22255.483      241.72226      3344.3073      2.1699575      39982.076    
      4020   304.86698     -503756.67     -499657.3      -24930.272      288.79315      3278.4045      2.1698333      39984.364    
      4040   306.15082     -503793.05     -499676.41     -25308.619      290.86757      3198.9232      2.1698002      39984.974    
      4060   301.70434     -503755.91     -499699.06     -25357.521      474.95112      3220.1268      2.169875       39983.596    
      4080   296.40254     -503712.61     -499727.05     -27778.45       622.11414      3463.4153      2.1697807      39985.334    
      4100   295.24104     -503719.72     -499749.79     -19917.131      487.62912      3325.2931      2.1699876      39981.521    
      4120   296.21226     -503747.01     -499764.01     -23663.483      358.32624      3302.3834      2.1697251      39986.358    
      4140   293.92508     -503726.34     -499774.1      -22852.449      421.72115      3399.8348      2.1697755      39985.429    
      4160   292.29055     -503711.51     -499781.25     -22447.728      252.21127      3292.7357      2.1699585      39982.057    
      4180   295.13384     -503749.82     -499781.33     -19054.421      414.56969      3301.2203      2.1698755      39983.586    
      4200   295.78648     -503750.97     -499773.7      -25700.557      269.36605      3250.0321      2.1699287      39982.607    
      4220   300.78264     -503804.59     -499760.14     -17874.205      330.548        3344.5049      2.1696955      39986.904    
      4240   304.28623     -503841.63     -499750.07     -21620.671      368.69657      3255.1728      2.1698254      39984.51     
      4260   298.3583      -503755.3      -499743.45     -23481.576      200.22744      3198.0199      2.1699091      39982.967    
      4280   294.68387     -503697.68     -499735.24     -24330.838      249.20057      3229.8924      2.1697535      39985.835    
      4300   293.97919     -503674.17     -499721.2      -24307.971      217.92505      3212.7724      2.1697152      39986.54     
      4320   294.32698     -503657.56     -499699.92     -22013.162      269.06024      3359.2549      2.1696845      39987.107    
      4340   296.90389     -503662.6      -499670.3      -23511.43       312.44939      3319.1586      2.1698116      39984.764    
      4360   296.91862     -503631.84     -499639.34     -24796.771      359.52355      3320.5105      2.1697222      39986.412    
      4380   302.34281     -503676.96     -499611.53     -23781.141      522.2619       3448.9394      2.1697663      39985.599    
      4400   308.4249      -503729.14     -499581.93     -25418.637      483.46164      3384.5263      2.1701547      39978.442    
      4420   308.96418     -503720.43     -499565.96     -19291.332      356.12577      3350.5343      2.1697054      39986.721    
      4440   306.56448     -503680.31     -499558.11     -26077.625      453.21541      3440.8219      2.1697551      39985.804    
      4460   303.28219     -503632.95     -499554.89     -21201.115      353.22655      3401.9503      2.1697669      39985.587    
      4480   301.22459     -503609.03     -499558.63     -24802.009      360.86355      3317.7603      2.1697695      39985.539    
      4500   300.4477      -503600.23     -499560.28     -22335.167      629.04097      3527.3625      2.169991       39981.458    
      4520   296.85402     -503555.67     -499564.04     -18815.297      337.82764      3444.6875      2.1696653      39987.459    
      4540   297.3317      -503560.91     -499562.86     -19734.56       314.51406      3413.1606      2.1699421      39982.36     
      4560   299.83518     -503592.26     -499560.54     -21602.506      305.74825      3347.6252      2.1700083      39981.14     
      4580   299.88554     -503591.5      -499559.11     -25673.175      293.38705      3362.9709      2.1698414      39984.214    
      4600   300.27442     -503592.38     -499554.76     -15415.356      367.79936      3346.9191      2.1698498      39984.06     
      4620   295.99692     -503529.85     -499549.75     -23457.874      308.77242      3387.4234      2.1697677      39985.573    
      4640   298.25952     -503558.49     -499547.96     -16379.753      349.76592      3357.8164      2.1697247      39986.365    
      4660   302.36894     -503605.36     -499539.58     -23669.332      327.77848      3373.5282      2.169819       39984.627    
      4680   306.6881      -503659.46     -499535.6      -24912.986      253.58816      3337.2313      2.1699221      39982.728    
      4700   308.54422     -503680.92     -499532.1      -22284.098      272.88021      3317.2017      2.1697966      39985.041    
      4720   305.08238     -503644.24     -499541.97     -22059.448      390.73455      3386.289       2.1700563      39980.255    
      4740   305.95887     -503678.23     -499564.18     -20019.434      290.12252      3336.7686      2.1699366      39982.461    
      4760   301.08295     -503632.25     -499583.76     -27329.702      231.61082      3333.5269      2.1697291      39986.285    
      4780   298.74421     -503622.22     -499605.17     -20521.908      309.61051      3313.5463      2.169674       39987.299    
      4800   297.84129     -503632.26     -499627.35     -24023.504      250.78906      3317.5286      2.1698181      39984.644    
      4820   299.38688     -503673.08     -499647.39     -19087.862      225.24206      3276.3103      2.1697552      39985.803    
      4840   301.59424     -503719.6      -499664.23     -19738.415      251.59492      3362.3199      2.1698135      39984.729    
      4860   300.23005     -503719.17     -499682.15     -18942.443      232.62283      3330.969       2.1697811      39985.325    
      4880   303.68656     -503783.42     -499699.92     -23065.032      240.57756      3219.4855      2.1697835      39985.281    
      4900   304.27273     -503815.23     -499723.85     -15271.355      310.73465      3393.0095      2.1697928      39985.109    
      4920   298.76126     -503766.69     -499749.42     -23099.617      254.4808       3287.6713      2.1701166      39979.144    
      4940   294.69073     -503739.74     -499777.2      -20568.187      301.86665      3294.975       2.1697438      39986.014    
      4960   291.15903     -503708.6      -499793.55     -15607.184      342.23198      3351.8153      2.1697817      39985.315    
      4980   291.8337      -503725.66     -499801.54     -25786.017      329.0574       3321.188       2.1699503      39982.207    
      5000   295.74337     -503779.22     -499802.53     -18400.996      347.36964      3282.1482      2.169797       39985.033    
      5020   295.4756      -503769.2      -499796.11     -22685.146      298.58486      3318.3852      2.1698332      39984.366    
      5040   297.98834     -503795.7      -499788.82     -28083.051      289.08101      3289.2798      2.1697537      39985.831    
      5060   297.38703     -503777.14     -499778.34     -23630.668      235.01853      3242.9599      2.1700502      39980.368    
      5080   296.90093     -503756.39     -499764.13     -21844.152      357.41592      3310.2183      2.1697791      39985.362    
      5100   298.47535     -503755.39     -499741.96     -21235.075      274.10046      3230.4667      2.1697504      39985.892    
      5120   295.77289     -503699.54     -499722.45     -19667.685      357.88605      3453.1526      2.1697576      39985.758    
      5140   297.42073     -503701.77     -499702.53     -20395.123      264.12591      3365.1333      2.1701222      39979.041    
      5160   296.59485     -503667.38     -499679.24     -19016.824      335.9131       3353.9892      2.1697376      39986.128    
      5180   298.62492     -503664.5      -499649.06     -21753.772      197.34589      3256.6943      2.1699359      39982.473    
      5200   302.88277     -503696.12     -499623.42     -19545.443      236.12941      3259.3803      2.1701141      39979.191    
      5220   301.21144     -503650.69     -499600.47     -17802.748      244.37964      3286.093       2.1697998      39984.981    
      5240   298.93769     -503595.3      -499575.66     -22919.689      222.71054      3281.998       2.1697646      39985.63     
      5260   300.83866     -503599.84     -499554.64     -19521.443      268.35932      3320.5994      2.16994        39982.398    
      5280   310.08766     -503705.65     -499536.08     -21602.987      245.69326      3199.2757      2.1697905      39985.152    
      5300   315.46583     -503766.78     -499524.89     -22879.199      244.85812      3215.5307      2.169813       39984.737    
      5320   316.18276     -503782.51     -499530.98     -21852.843      263.95252      3275.4359      2.170092       39979.597    
      5340   318.14822     -503834.95     -499556.99     -17476.283      272.57672      3249.1859      2.169709       39986.655    
      5360   314.25277     -503822.66     -499597.08     -27706.822      249.95612      3259.7709      2.1700575      39980.233    
      5380   309.80842     -503813.86     -499648.04     -19486.501      232.10781      3287.2652      2.1697795      39985.356    
      5400   304.83193     -503801.78     -499702.88     -21213.765      217.04004      3205.6713      2.1697956      39985.058    
      5420   296.93112     -503740.57     -499747.91     -26067.671      203.9897       3229.5106      2.1697391      39986.099    
      5440   295.50794     -503757.27     -499783.74     -19135.022      255.77052      3277.8969      2.1696863      39987.073    
      5460   296.85055     -503801.79     -499810.2      -23039.437      260.31334      3251.9188      2.169844       39984.166    
      5480   299.80602     -503866.96     -499835.64     -23212.84       308.55493      3216.2969      2.1697446      39985.999    
      5500   299.59164     -503885.6      -499857.16     -19930.637      261.2161       3286.7818      2.1696901      39987.004    
      5520   298.29019     -503888.4      -499877.46     -17445.077      194.11731      3227.6599      2.1697955      39985.061    
      5540   298.81605     -503911.96     -499893.95     -15759.582      257.84884      3205.3599      2.1698124      39984.749    
      5560   298.56183     -503923.83     -499909.23     -23756.126      248.44403      3210.176       2.1700087      39981.133    
      5580   299.50996     -503952.94     -499925.6      -19134.412      362.53909      3260.0679      2.1697237      39986.383    
      5600   298.67707     -503955.42     -499939.28     -19263.005      211.12796      3223.8927      2.1699033      39983.074    
      5620   293.93227     -503904.43     -499952.09     -20452.596      353.81821      3232.849       2.1702487      39976.711    
      5640   292.27261     -503888.34     -499958.31     -16951.658      271.67506      3273.2634      2.1699434      39982.335    
      5660   292.81807     -503893.48     -499956.12     -20437.532      278.23394      3255.6081      2.1699142      39982.873    
      5680   293.51459     -503892.92     -499946.2      -24704.319      254.76818      3209.9182      2.1697901      39985.16     
      5700   293.36373     -503874.55     -499929.86     -13665.287      268.01349      3328.5507      2.1696958      39986.898    
      5720   292.16146     -503833.93     -499905.4      -27643.835      278.23853      3330.6864      2.1696622      39987.517    
      5740   298.11238     -503882.74     -499874.19     -24692.425      256.67946      3229.7732      2.1699539      39982.141    
      5760   300.79184     -503890.97     -499846.39     -14765.16       246.60351      3250.7235      2.1697334      39986.205    
      5780   299.80582     -503854.31     -499822.99     -23712.625      242.7782       3307.6985      2.1696949      39986.915    
      5800   299.57692     -503825.38     -499797.13     -19880.256      288.22704      3328.6734      2.1697551      39985.805    
      5820   298.99365     -503790.3      -499769.9      -18473.038      316.90284      3309.9707      2.1697615      39985.687    
      5840   300.53432     -503786.66     -499745.55     -23842.26       300.41384      3388.55        2.1696961      39986.892    
      5860   300.92146     -503770.34     -499724.02     -21143.668      463.7084       3343.5105      2.1697916      39985.133    
      5880   299.47682     -503733.42     -499706.52     -15125.121      395.28412      3412.3068      2.1697352      39986.172    
      5900   301.2164      -503737.96     -499687.68     -22382.891      350.01767      3275.4384      2.1697848      39985.258    
      5920   303.8078      -503753.71     -499668.58     -16722.208      370.58224      3261.5188      2.1696927      39986.954    
      5940   304.7217      -503752.08     -499654.66     -18240.393      298.28907      3305.2194      2.1699841      39981.585    
      5960   304.88912     -503744.45     -499644.78     -25849.148      306.00193      3292.2423      2.1698328      39984.372    
      5980   308.28374     -503788.46     -499643.14     -20808.151      213.71032      3242.8494      2.1697314      39986.241    
      6000   308.6487      -503799.47     -499649.24     -22970.887      234.17019      3242.8995      2.1696645      39987.475    
      6020   306.23406     -503784.74     -499666.99     -22018.144      252.33888      3245.1124      2.1699156      39982.847    
      6040   299.53714     -503716.62     -499688.91     -17797.181      190.66408      3282.9191      2.1697454      39985.983    
      6060   293.60537     -503657.84     -499709.89     -19381.856      246.15498      3338.3691      2.1701971      39977.662    
      6080   296.56688     -503710.14     -499722.37     -22104.485      295.99361      3284.8297      2.1702022      39977.566    
      6100   295.21811     -503700.52     -499730.89     -21654.938      257.02774      3223.6312      2.1697421      39986.045    
      6120   292.84893     -503672.1      -499734.32     -25290.064      319.66255      3353.1324      2.1698294      39984.436    
      6140   293.97326     -503683.79     -499730.9      -21404.908      279.1725       3355.0882      2.169724       39986.377    
      6160   294.28922     -503682.48     -499725.34     -22050.911      218.17578      3291.3418      2.1700978      39979.49     
      6180   298.87379     -503727.26     -499708.48     -19115.638      229.34528      3284.0007      2.1698779      39983.541    
      6200   298.76835     -503708.18     -499690.82     -17747.803      247.67369      3374.8278      2.1699212      39982.744    
      6220   299.99641     -503705.93     -499672.05     -16238.736      378.58172      3347.2088      2.1701955      39977.691    
      6240   298.48253     -503667.12     -499653.59     -21754.356      210.71158      3314.8439      2.1699218      39982.733    
      6260   297.23566     -503630.69     -499633.93     -19142.631      301.29257      3404.5057      2.1699554      39982.114    
      6280   303.37078     -503691.96     -499612.71     -14676.527      254.97244      3294.1592      2.1698855      39983.403    
      6300   303.46359     -503674.82     -499594.31     -20350.793      238.56358      3333.5157      2.1698537      39983.988    
      6320   302.01292     -503644.21     -499583.22     -24045.294      265.36936      3295.4383      2.1700282      39980.773    
      6340   301.27908     -503624.96     -499573.83     -18703.695      187.28806      3275.7647      2.170024       39980.851    
      6360   299.33627     -503591.77     -499566.77     -18482.269      262.51765      3332.6948      2.1699605      39982.021    
      6380   300.95341     -503603.61     -499556.86     -21537.697      247.46893      3271.4913      2.1701312      39978.875    
      6400   299.50676     -503575.66     -499548.36     -19749.253      263.48991      3291.4107      2.1704132      39973.681    
      6420   297.95598     -503545.18     -499538.74     -26072.739      278.87197      3295.9682      2.1699841      39981.585    
      6440   301.5338      -503584.69     -499530.14     -21910.692      258.2294       3292.2929      2.1698563      39983.939    
      6460   299.73993     -503549.08     -499518.65     -25897.477      257.72979      3303.8891      2.1699035      39983.071    
      6480   301.37343     -503558.72     -499506.32     -26065.046      298.00481      3298.5292      2.1698324      39984.381    
      6500   299.73452     -503525.48     -499495.12     -19997.982      355.62895      3308.4422      2.1700142      39981.03     
      6520   297.0192      -503475.9      -499482.05     -23325.774      208.0452       3259.0763      2.169705       39986.728    
      6540   298.99099     -503488.53     -499468.17     -20507.613      207.31821      3284.3999      2.1697905      39985.152    
      6560   300.33079     -503488.7      -499450.32     -18687.824      226.2729       3369.3919      2.1701953      39977.694    
      6580   309.97201     -503599.34     -499431.32     -21099.454      312.98953      3312.4993      2.1697974      39985.026    
      6600   312.83458     -503630.44     -499423.93     -16862.709      294.16654      3295.95        2.1698754      39983.588    
      6620   309.80975     -503601.58     -499435.75     -23709.101      247.85431      3259.8416      2.1699112      39982.928    
      6640   307.32419     -503584.78     -499452.37     -20425.071      349.37796      3397.0558      2.1698101      39984.792    
      6660   304.61555     -503575.62     -499479.63     -16127.719      276.4584       3281.3615      2.1699364      39982.464    
      6680   304.34126     -503600.42     -499508.11     -21110.884      292.42577      3299.216       2.1699961      39981.364    
      6700   298.41596     -503548.22     -499535.59     -18788.402      278.04565      3343.6771      2.1704065      39973.805    
      6720   293.44048     -503497.04     -499551.31     -26198.15       232.7472       3286.4125      2.1697088      39986.657    
      6740   297.9211      -503564.42     -499558.44     -19466.548      307.74775      3335.4406      2.1697894      39985.173    
      6760   299.11729     -503581.42     -499559.36     -22616.251      238.31436      3279.3404      2.169851       39984.038    
      6780   302.06376     -503624.02     -499562.34     -23436.367      267.5723       3333.8341      2.1697238      39986.381    
      6800   299.37986     -503588.72     -499563.13     -17123.352      306.25038      3423.6984      2.1698413      39984.216    
      6820   297.43035     -503564.49     -499565.11     -24190.641      342.13098      3342.0608      2.1699536      39982.147    
      6840   301.13018     -503614.5      -499565.38     -31591.895      340.77485      3257.3258      2.1700356      39980.635    
      6860   299.83711     -503597.06     -499565.32     -18803.418      430.51152      3430.2197      2.1698529      39984.004    
      6880   304.0154      -503657.38     -499569.46     -22774.297      224.57859      3312.8925      2.1697794      39985.357    
      6900   304.68325     -503669.71     -499572.81     -15015.716      709.75544      3658.744       2.1699357      39982.476    
      6920   301.73556     -503642.16     -499584.89     -19536.755      451.9928       3396.9045      2.1700831      39979.761    
      6940   301.43999     -503652.23     -499598.93     -25009.175      402.55208      3410.2532      2.1701701      39978.158    
      6960   300.0897      -503649.27     -499614.13     -21930.007      388.95479      3359.5451      2.1697795      39985.356    
      6980   300.46803     -503674.42     -499634.2      -19563.921      414.30375      3356.8004      2.169731       39986.248    
      7000   298.81101     -503675.55     -499657.6      -25105.144      412.10233      3341.7718      2.1697487      39985.923    
      7020   297.10271     -503674.03     -499679.06     -19612.272      428.14911      3332.5386      2.1704226      39973.507    
      7040   294.44529     -503654.65     -499695.41     -23256.91       387.83258      3320.3741      2.1698293      39984.438    
      7060   293.66789     -503654.55     -499705.76     -28200.159      382.33664      3358.8696      2.1703137      39975.514    
      7080   297.10901     -503705.2      -499710.14     -17211.109      357.02946      3416.602       2.1700116      39981.078    
      7100   297.78658     -503714.48     -499710.32     -21758.226      214.3784       3260.73        2.1699508      39982.199    
      7120   295.14333     -503673.42     -499704.79     -22690.175      310.81541      3411.4769      2.169901       39983.116    
      7140   295.88434     -503674.47     -499695.88     -21458.111      218.66757      3303.0311      2.1703525      39974.799    
      7160   297.97923     -503693.59     -499686.84     -19562.23       291.92364      3315.9869      2.1697022      39986.779    
      7180   298.56851     -503686.79     -499672.11     -25303.442      219.73025      3290.137       2.169782       39985.308    
      7200   300.62086     -503697.08     -499654.8      -16657.719      336.34189      3340.7258      2.1706103      39970.051    
      7220   303.04022     -503709.09     -499634.28     -23458.869      239.3282       3319.9335      2.1700317      39980.708    
      7240   303.85714     -503697.65     -499611.86     -20664.205      376.1394       3367.6376      2.1698954      39983.22     
      7260   304.98207     -503692.05     -499591.13     -26244.116      303.55104      3322.7884      2.1699813      39981.637    
      7280   305.50203     -503678.76     -499570.85     -19047.846      314.92046      3338.1634      2.1699875      39981.523    
      7300   305.01395     -503641.29     -499539.94     -23027.776      312.05642      3360.2122      2.1699421      39982.358    
      7320   307.03268     -503632.63     -499504.14     -24094.283      271.71867      3309.6751      2.1699707      39981.833    
      7340   309.24317     -503621.5      -499463.28     -20872.997      269.75177      3333.3849      2.1704388      39973.21     
      7360   310.33159     -503604.49     -499431.64     -27880.667      277.22311      3409.1315      2.1698581      39983.907    
      7380   309.99638     -503583.25     -499414.91     -13119.228      304.11735      3409.3168      2.1701764      39978.043    
      7400   310.2899      -503582.92     -499410.63     -19630.525      269.34114      3345.4719      2.1700164      39980.99     
      7420   310.88623     -503597.11     -499416.8      -25522.105      178.13531      3262.5191      2.1696643      39987.479    
      7440   308.75399     -503584.05     -499432.41     -20301.716      224.56404      3333.7281      2.1699389      39982.418    
      7460   307.78623     -503589.93     -499451.3      -28923.476      207.55683      3322.7854      2.1697441      39986.007    
      7480   305.92592     -503588.78     -499475.17     -21321.988      292.52457      3378.0568      2.1702501      39976.685    
      7500   305.86693     -503607.14     -499494.32     -15246.175      269.97101      3428.6039      2.1699278      39982.623    
      7520   307.08206     -503641.6      -499512.44     -20071.024      275.19055      3337.5288      2.1697437      39986.016    
      7540   304.98986     -503632.68     -499531.65     -20234.411      234.50327      3365.2841      2.1697298      39986.271    
      7560   303.97753     -503636.5      -499549.09     -19707.077      317.29057      3425.5536      2.1697516      39985.87     
      7580   304.4153      -503659.5      -499566.2      -23525.303      264.1959       3384.5945      2.1697723      39985.488    
      7600   305.12928     -503686.8      -499583.9      -19270.64       275.67034      3359.4957      2.1697877      39985.204    
      7620   303.2498      -503684.62     -499606.99     -17913.616      425.19506      3438.3207      2.1698497      39984.062    
      7640   299.15509     -503649.68     -499627.11     -24505.245      278.06453      3364.3602      2.1698618      39983.838    
      7660   301.49977     -503697.22     -499643.12     -21491.197      277.89908      3337.4283      2.1697981      39985.013    
      7680   301.39523     -503711.81     -499659.12     -24742.777      474.82484      3384.6046      2.1697326      39986.22     
      7700   299.47952     -503703.26     -499676.32     -21901.767      274.98737      3292.4572      2.170206       39977.498    
      7720   296.17503     -503673.69     -499691.2      -18838.977      410.82386      3378.6273      2.1698069      39984.85     
      7740   292.78324     -503636.19     -499699.3      -26311.212      240.23272      3300.2599      2.1700882      39979.668    
      7760   294.49907     -503659.57     -499699.61     -19978.539      259.41747      3301.1226      2.1702089      39977.444    
      7780   296.61538     -503685.48     -499697.06     -24599.038      271.59454      3358.1083      2.1699234      39982.704    
      7800   296.77236     -503680.94     -499690.41     -25148.931      279.79408      3322.015       2.1698557      39983.951    
      7820   298.63274     -503694.3      -499678.75     -18033.82       319.97753      3391.599       2.169848       39984.093    
      7840   300.58621     -503701.61     -499659.8      -20318.824      297.32186      3365.3748      2.169956       39982.104    
      7860   306.96922     -503772.22     -499644.57     -21226.275      261.31032      3392.063       2.1702342      39976.978    
      7880   310.85591     -503818.8      -499638.89     -20042.584      383.35926      3418.277       2.1697488      39985.921    
      7900   304.97691     -503743.85     -499643        -23064.403      313.58023      3371.3803      2.1697593      39985.727    
      7920   302.99723     -503727.77     -499653.54     -20378.532      1222.1558      4043.1458      2.1697956      39985.058    
      7940   296.51659     -503655.29     -499668.2      -17985.499      289.67296      3396.509       2.1697887      39985.186    
      7960   296.69902     -503671.12     -499681.58     -25770.776      263.10535      3305.6945      2.1697488      39985.921    
      7980   298.40275     -503708.34     -499695.89     -16973.883      278.9686       3321.0702      2.1696797      39987.195    
      8000   295.99587     -503690.42     -499710.33     -25567.731      240.72546      3332.397       2.1697813      39985.322    
      8020   297.80531     -503726.9      -499722.48     -18683.156      314.72826      3399.6198      2.1697566      39985.777    
      8040   296.27179     -503721.66     -499737.86     -25417.502      335.89195      3357.2905      2.1698848      39983.416    
      8060   296.74601     -503746.04     -499755.87     -25881.02       248.86716      3288.9332      2.169686       39987.078    
      8080   296.66421     -503761.81     -499772.73     -23086.231      320.59691      3273.0308      2.1699027      39983.085    
      8100   292.54682     -503720.44     -499786.73     -24062.681      238.07471      3273.785       2.1697562      39985.784    
      8120   295.47102     -503774.66     -499801.63     -15633.153      313.30822      3379.9719      2.1698321      39984.385    
      8140   296.86575     -503806.22     -499814.43     -23249.195      237.07191      3270.8423      2.1696979      39986.86     
      8160   300.95184     -503874.17     -499827.44     -24979.697      257.96593      3204.6325      2.1697459      39985.975    
      8180   299.01402     -503862.44     -499841.77     -14209.168      236.88437      3272.409       2.1699367      39982.459    
      8200   295.98037     -503839.29     -499859.41     -23160.838      297.09942      3256.206       2.1700152      39981.012    
      8220   295.64197     -503851.42     -499876.09     -24364.071      192.63615      3216.818       2.1697992      39984.991    
      8240   294.33615     -503846.56     -499888.79     -16866.423      284.13061      3271.0809      2.1698681      39983.722    
      8260   295.26663     -503867.28     -499897        -22040.991      223.5456       3241.5537      2.1696876      39987.049    
      8280   296.25773     -503885.63     -499902.01     -17689.374      331.57602      3353.6252      2.1698531      39983.999    
      8300   294.72684     -503867.05     -499904.02     -20447.261      302.96333      3371.6977      2.1697078      39986.676    
      8320   295.22256     -503869.18     -499899.49     -18089.638      393.4365       3353.762       2.1698434      39984.178    
      8340   297.06448     -503884.27     -499889.81     -22435.86       274.07159      3273.9851      2.1697185      39986.479    
      8360   298.08513     -503881.94     -499873.76     -24278.989      246.709        3269.0625      2.1697093      39986.648    
      8380   298.69515     -503864.7      -499848.32     -19934.726      684.87533      3563.0342      2.1699287      39982.606    
      8400   299.69571     -503851.12     -499821.28     -24039.463      234.00366      3324.2588      2.1699435      39982.333    
      8420   298.26503     -503803.88     -499793.27     -24900.753      223.29828      3256.1188      2.1699729      39981.791    
      8440   297.83139     -503771.81     -499767.04     -21064.279      426.29811      3400.4527      2.1699859      39981.552    
      8460   297.87112     -503747.01     -499741.7      -23910.297      256.20001      3388.2118      2.1697299      39986.27     
      8480   303.48381     -503803.32     -499722.55     -19677.445      204.17467      3260.9883      2.1698875      39983.364    
      8500   305.98681     -503825.34     -499710.91     -17420.542      253.51535      3359.5623      2.1698719      39983.653    
      8520   305.81138     -503819.76     -499707.69     -23723.831      242.26767      3328.3636      2.169768       39985.568    
      8540   304.24657     -503803.09     -499712.05     -21732.998      265.48541      3410.8259      2.169912       39982.913    
      8560   304.57914     -503815.66     -499720.15     -20254.771      260.37657      3427.1098      2.1700088      39981.131    
      8580   305.47772     -503839.42     -499731.84     -17163.197      246.36904      3389.5706      2.1698656      39983.768    
      8600   305.48872     -503854.78     -499747.05     -21618.03       293.93487      3434.474       2.1701158      39979.159    
      8620   301.44799     -503820.73     -499767.33     -20453.777      274.03555      3381.5778      2.1697373      39986.134    
      8640   298.16876     -503795.56     -499786.26     -22880.253      254.41396      3403.0526      2.1699858      39981.553    
      8660   297.2765      -503796.74     -499799.43     -18909.956      327.29518      3513.8384      2.1699871      39981.529    
      8680   295.52997     -503783.23     -499809.4      -23939.463      232.19005      3367.0919      2.1698346      39984.339    
      8700   295.97692     -503793.41     -499813.57     -18991.145      343.25795      3404.9711      2.1697584      39985.743    
      8720   294.34224     -503770.1      -499812.25     -21744.437      223.31747      3319.1989      2.1697123      39986.593    
      8740   291.86563     -503732.58     -499808.03     -29172.246      277.40938      3298.4657      2.1696755      39987.272    
      8760   295.96929     -503773.02     -499793.29     -24278.498      210.6364       3295.3423      2.1698519      39984.021    
      8780   298.5402      -503791.3      -499777        -16869.761      349.3166       3303.7311      2.1697858      39985.239    
      8800   302.57023     -503829.71     -499761.22     -23754.897      251.26511      3292.5353      2.170051       39980.353    
      8820   301.25934     -503802.11     -499751.25     -20965.637      239.50211      3322.024       2.1698342      39984.348    
      8840   300.30135     -503780.6      -499742.61     -16724.295      270.18373      3338.3262      2.1697676      39985.575    
      8860   304.27304     -503829.98     -499738.59     -19244.319      243.79032      3331.5982      2.169883       39983.449    
      8880   299.59298     -503764.81     -499736.35     -20792.398      268.58846      3291.1355      2.1697191      39986.469    
      8900   297.58048     -503733.85     -499732.45     -16602.426      268.75865      3353.5549      2.169845       39984.147    
      8920   296.91487     -503720.36     -499727.92     -25310.791      280.28336      3262.1484      2.1699391      39982.414    
      8940   296.96151     -503716.82     -499723.75     -21431.344      234.53476      3278.228       2.1698692      39983.703    
      8960   303.72455     -503803.6      -499719.59     -22852.024      204.85316      3251.91        2.1697688      39985.553    
      8980   300.41791     -503756.05     -499716.5      -23527.318      186.71507      3186.3746      2.1697344      39986.187    
      9000   300.95685     -503759.8      -499713        -20448.374      237.79808      3260.1923      2.169832       39984.388    
      9020   298.42114     -503725.18     -499712.48     -29028.271      209.81236      3234.0372      2.1699628      39981.977    
      9040   295.11007     -503681.81     -499713.64     -16935.161      257.98763      3385.8811      2.1697587      39985.738    
      9060   299.80619     -503737.39     -499706.06     -20725.069      343.16069      3320.5466      2.1699756      39981.741    
      9080   296.35149     -503683.92     -499699.05     -23189.763      236.0844       3274.5298      2.1699462      39982.284    
      9100   299.74225     -503717.1      -499686.63     -23842.913      306.72369      3274.4168      2.1699985      39981.321    
      9120   299.66695     -503712.19     -499682.74     -17423.102      318.54954      3349.0013      2.1698359      39984.316    
      9140   297.88901     -503684.2      -499678.66     -28873.198      216.12829      3214.8464      2.1697151      39986.543    
      9160   302.66134     -503741.32     -499671.6      -22044.294      292.74472      3286.7346      2.169772       39985.494    
      9180   304.82158     -503768.57     -499669.81     -14269.238      210.77923      3281.5284      2.16974        39986.084    
      9200   306.65734     -503792.44     -499668.99     -24449.424      205.49451      3193.7312      2.1699146      39982.866    
      9220   303.6514      -503760.01     -499676.99     -15186.734      333.1193       3295.437       2.1697334      39986.204    
      9240   296.50985     -503674.6      -499687.6      -20985.53       257.92892      3267.4198      2.169819       39984.627    
      9260   300.39293     -503732.81     -499693.6      -22664.206      240.57818      3227.2709      2.1698107      39984.78     
      9280   299.91416     -503731.28     -499698.5      -23848.227      300.07176      3237.2695      2.169779       39985.364    
      9300   298.12636     -503712.42     -499703.68     -20119.608      262.61341      3226.923       2.1697657      39985.61     
      9320   298.20767     -503714.73     -499704.9      -17269.878      253.7546       3244.8363      2.1699251      39982.672    
      9340   296.45995     -503689.48     -499703.15     -20489.199      244.88971      3220.8245      2.1699771      39981.714    
      9360   298.37677     -503714.19     -499702.09     -23248.246      317.71417      3313.5312      2.17039        39974.107    
      9380   298.08395     -503707.38     -499699.21     -23423.526      302.73278      3309.3454      2.1698354      39984.324    
      9400   294.79017     -503655.95     -499692.08     -23023.455      280.56845      3321.491       2.1697156      39986.533    
      9420   299.88745     -503717.35     -499684.93     -27214.028      253.92948      3256.308       2.1697788      39985.369    
      9440   298.90896     -503698.9      -499679.64     -20391.551      237.90288      3305.0804      2.1697285      39986.294    
      9460   302.2794      -503741.39     -499676.81     -21959.476      261.7452       3277.1377      2.1697444      39986.002    
      9480   303.39484     -503756.95     -499677.38     -24497.226      264.34681      3244.0726      2.1698132      39984.734    
      9500   299.30938     -503702.75     -499678.11     -13977.857      265.70279      3312.5059      2.1698532      39983.998    
      9520   302.21201     -503743.39     -499679.72     -28395.449      486.22125      3355.3826      2.1697317      39986.237    
      9540   297.89564     -503686.65     -499681.02     -24183.121      255.34009      3279.3097      2.1697886      39985.188    
      9560   297.46538     -503680.01     -499680.16     -11718.021      341.72436      3342.7401      2.1697415      39986.055    
      9580   299.22309     -503704.74     -499681.25     -24521.67       208.69624      3238.3454      2.1696961      39986.893    
      9600   296.64589     -503667.46     -499678.63     -18496.235      312.93742      3385.4508      2.169785       39985.254    
      9620   301.27708     -503722.19     -499671.08     -15735.084      394.81828      3379.2155      2.1697449      39985.994    
      9640   300.21249     -503701.15     -499664.36     -19229.664      210.52428      3228.1237      2.1698354      39984.326    
      9660   299.45853     -503685.25     -499658.61     -18000.314      311.90634      3310.5173      2.1699154      39982.85     
      9680   302.32002     -503717.49     -499652.36     -18823.034      315.20401      3285.6273      2.1697645      39985.631    
      9700   298.91387     -503662.16     -499642.83     -27743.693      286.93166      3300.9804      2.1698208      39984.594    
      9720   303.69797     -503719.49     -499635.84     -24708.311      291.7782       3315.5642      2.1697463      39985.967    
      9740   302.56275     -503701.77     -499633.38     -21753.077      283.45924      3331.0314      2.1697464      39985.966    
      9760   300.54539     -503667.74     -499626.47     -23984.609      218.26308      3242.5952      2.1696823      39987.147    
      9780   299.49387     -503645.3      -499618.17     -18407.835      251.9559       3330.6811      2.1698421      39984.201    
      9800   301.53644     -503661.57     -499606.98     -22675.17       235.66112      3312.0586      2.1698356      39984.321    
      9820   307.25443     -503724.84     -499593.36     -25102.375      247.01152      3305.0635      2.1699073      39983        
      9840   306.32819     -503703.5      -499584.48     -28114.624      285.3303       3336.0097      2.1696837      39987.122    
      9860   306.48649     -503707.12     -499585.97     -18440.302      297.54652      3393.9615      2.1698525      39984.01     
      9880   307.61858     -503726.56     -499590.19     -16789.155      224.00894      3280.194       2.1697796      39985.354    
      9900   304.73784     -503704.06     -499606.42     -23786.001      243.39338      3295.9043      2.1699126      39982.903    
      9920   303.37509     -503712.55     -499633.24     -19635.52       322.25219      3336.6699      2.1698503      39984.051    
      9940   298.90289     -503682.3      -499663.12     -15771.704      261.27589      3325.4228      2.1698266      39984.486    
      9960   296.31099     -503672.57     -499688.24     -20168.377      264.97168      3300.7236      2.1698819      39983.469    
      9980   294.74108     -503670.18     -499706.96     -18764.515      249.41977      3343.1127      2.1697859      39985.237    
     10000   298.54013     -503731.34     -499717.04     -24581.758      250.13188      3288.6077      2.1698845      39983.421    
     10020   298.73079     -503742.07     -499725.2      -19655.129      229.825        3287.0601      2.1697995      39984.986    
     10040   291.66354     -503650.73     -499728.9      -22718.413      229.55377      3283.7486      2.1696895      39987.014    
     10060   293.42044     -503671.03     -499725.57     -26224.777      223.9918       3304.7562      2.1697149      39986.545    
     10080   296.63837     -503701.82     -499713.09     -23859.009      327.04444      3275.6986      2.1697249      39986.361    
     10100   297.92697     -503705.99     -499699.93     -19995.048      262.30736      3289.7297      2.1699912      39981.455    
     10120   302.09363     -503745.23     -499683.15     -21067.302      215.92568      3262.5594      2.1698611      39983.851    
     10140   300.25672     -503707.29     -499669.91     -24852.09       270.91161      3255.2784      2.1698458      39984.134    
     10160   300.60291     -503700.17     -499658.14     -22524.279      273.37323      3319.3026      2.1701523      39978.486    
     10180   299.86409     -503677.05     -499644.95     -21207.505      219.58767      3355.2533      2.1697916      39985.133    
     10200   299.92962     -503667.37     -499634.39     -21444.766      321.99557      3317.6476      2.1698376      39984.284    
     10220   302.75361     -503694.66     -499623.7      -24247.51       266.23805      3291.9803      2.169779       39985.365    
     10240   300.40097     -503654.69     -499615.37     -22382.835      303.46741      3391.1772      2.1698612      39983.85     
     10260   301.99507     -503668.3      -499607.54     -24010.89       209.23369      3327.2827      2.1697149      39986.545    
     10280   300.8844      -503648.93     -499603.1      -19799.468      269.38861      3346.8002      2.1696966      39986.882    
     10300   295.31612     -503567.07     -499596.12     -22493.91       367.98309      3442.5982      2.1697237      39986.383    
     10320   300.42308     -503624.3      -499584.68     -22490.595      300.49069      3350.2244      2.1698401      39984.238    
     10340   304.12884     -503656.53     -499567.08     -19708.553      301.90541      3418.2831      2.1697614      39985.688    
     10360   307.28163     -503680.15     -499548.31     -20616.958      230.26833      3418.0738      2.1697542      39985.822    
     10380   311.14652     -503709.83     -499526.02     -23845.26       207.85705      3280.7158      2.1698279      39984.463    
     10400   308.30422     -503648.71     -499503.12     -22732.687      237.48028      3386.2588      2.1697425      39986.038    
     10420   309.7132      -503645.2      -499480.66     -26329.438      215.336        3329.9716      2.1697349      39986.178    
     10440   308.591       -503618.22     -499468.77     -22338.563      248.86507      3422.8349      2.1697799      39985.349    
     10460   308.15474     -503609.65     -499466.06     -24134.355      242.39139      3414.4278      2.1697686      39985.555    
     10480   309.45934     -503634.35     -499473.23     -23488.472      345.23752      3342.4692      2.16975        39985.898    
     10500   308.49121     -503639.26     -499491.15     -19355.711      250.47243      3305.307       2.1697384      39986.112    
     10520   308.77946     -503670.31     -499518.33     -21585.274      283.27614      3323.5521      2.1697619      39985.679    
     10540   306.43342     -503675.57     -499555.13     -24403.678      289.25406      3284.4693      2.1697784      39985.375    
     10560   302.75814     -503662.79     -499591.77     -22279.622      235.07063      3287.7014      2.1697911      39985.141    
     10580   299.46957     -503646.1      -499619.3      -22893.712      247.56719      3276.111       2.1698393      39984.253    
     10600   297.3745      -503634.48     -499635.86     -21182.903      227.77131      3271.5247      2.169687       39987.059    
     10620   295.03343     -503613.41     -499646.27     -19128.065      221.66168      3278.203       2.169732       39986.23     
     10640   296.27102     -503635.47     -499651.68     -20185.096      289.49388      3295.0626      2.1699219      39982.73     
     10660   298.05572     -503660.16     -499652.38     -19350.239      351.1135       3333.2196      2.1697322      39986.227    
     10680   294.56836     -503612.31     -499651.41     -20410.126      236.6459       3350.4558      2.1697343      39986.189    
     10700   296.90489     -503630.29     -499637.98     -24649.562      252.51319      3320.3593      2.1698837      39983.435    
     10720   302.88627     -503700.25     -499627.51     -24697.821      262.95889      3363.0651      2.169747       39985.953    
     10740   302.89427     -503692.16     -499619.31     -30568.616      242.04251      3286.3417      2.1698424      39984.196    
     10760   301.43629     -503667.68     -499614.43     -16952.335      314.17365      3407.3333      2.1698274      39984.472    
     10780   299.71725     -503638.6      -499608.47     -25206.064      228.33075      3298.7808      2.1697643      39985.636    
     10800   301.52022     -503656.74     -499602.37     -23072.445      254.75126      3325.4213      2.1697132      39986.577    
     10820   302.76586     -503669.33     -499598.2      -21161.739      256.99367      3352.5692      2.1699476      39982.258    
     10840   302.87685     -503673.2      -499600.59     -20429.091      408.75565      3438.2442      2.1698727      39983.638    
     10860   304.75101     -503701.74     -499603.93     -29472.857      233.98574      3260.2781      2.169737       39986.138    
     10880   302.0144      -503671.97     -499610.96     -19721.975      249.96868      3309.5907      2.1699341      39982.507    
     10900   301.53908     -503676.21     -499621.58     -19474.903      288.72481      3404.6964      2.1697891      39985.178    
     10920   302.97489     -503715.29     -499641.36     -20500.995      344.64126      3304.7866      2.1696877      39987.048    
     10940   300.94461     -503711.53     -499664.9      -21399.381      242.28484      3246.1492      2.1698404      39984.234    
     10960   298.94942     -503708.69     -499688.89     -22511.839      359.31003      3257.5149      2.1697968      39985.037    
     10980   294.90997     -503677.73     -499712.25     -26974.441      220.85367      3245.9869      2.1696852      39987.093    
     11000   296.42237     -503717.23     -499731.41     -19521.863      341.75323      3229.9299      2.1697331      39986.211    
     11020   297.94039     -503748.45     -499742.22     -21559.66       237.17659      3226.9508      2.1698437      39984.173    
     11040   298.00298     -503757.65     -499750.57     -21560.854      259.46044      3226.812       2.1697766      39985.409    
     11060   297.00429     -503749.11     -499755.46     -20283.928      325.65228      3231.7086      2.169701       39986.801    
     11080   292.64861     -503691.26     -499756.18     -23346.175      236.36265      3284.1262      2.1696992      39986.835    
     11100   294.77082     -503713.06     -499749.44     -24927.728      199.03719      3179.9002      2.1700517      39980.34     
     11120   294.31632     -503696.9      -499739.39     -23753.136      265.89471      3242.9297      2.1697071      39986.69     
     11140   294.04362     -503678.4      -499724.56     -25644.675      302.46243      3288.8342      2.1697124      39986.592    
     11160   298.13089     -503711.58     -499702.78     -24088.146      257.66495      3262.0486      2.1699218      39982.734    
     11180   297.75494     -503686.67     -499682.93     -24640.714      242.86233      3292.2084      2.1697408      39986.068    
     11200   302.27341     -503732.21     -499667.71     -20515.777      291.60512      3272.1292      2.1697578      39985.755    
     11220   297.7111      -503659.53     -499656.38     -25069.786      299.24764      3371.6123      2.1698676      39983.731    
     11240   295.51547     -503621.74     -499648.11     -20571.442      308.344        3349.7885      2.1697544      39985.817    
     11260   297.23722     -503635.11     -499638.33     -23296.717      411.43976      3386.2977      2.1699595      39982.038    
     11280   297.83416     -503634.66     -499629.86     -22994.375      349.40173      3378.9135      2.1698357      39984.319    
     11300   300.01444     -503656.57     -499622.44     -23861.588      272.56536      3368.4967      2.1699002      39983.13     
     11320   300.26369     -503650.97     -499613.49     -25964.843      415.14759      3431.265       2.1698443      39984.161    
     11340   302.46611     -503672.94     -499605.85     -15700.939      462.05598      3527.884       2.1697544      39985.817    
     11360   304.4396      -503696.65     -499603.03     -23249.36       482.3331       3417.6126      2.1700544      39980.291    
     11380   300.24732     -503640.19     -499602.93     -27857.419      334.96003      3409.9296      2.1697895      39985.171    
     11400   303.6601      -503690.52     -499607.37     -20091.058      332.34006      3387.0255      2.169768       39985.566    
     11420   302.0333      -503677.4      -499616.13     -24167.539      560.85704      3413.9704      2.1697052      39986.725    
     11440   301.09398     -503675.85     -499627.21     -21897.708      611.44326      3400.9681      2.1697317      39986.235    
     11460   301.80402     -503698.01     -499639.82     -17007.85       564.29131      3432.9311      2.1697133      39986.576    
     11480   300.61054     -503694.51     -499652.37     -22159.71       475.91752      3464.7525      2.1698885      39983.346    
     11500   304.70763     -503770.35     -499673.12     -19792.902      279.94761      3287.7687      2.1697451      39985.989    
     11520   299.65975     -503723.91     -499694.56     -25391.867      202.25128      3237.0856      2.1700549      39980.281    
[...]
     37180   296.29524     -503791.2      -499807.09     -19119.772      354.24732      3382.1218      2.1699368      39982.457    
     37200   298.20169     -503807.28     -499797.54     -20874.062      290.76727      3312.1828      2.1699235      39982.702    
     37220   297.57656     -503788.31     -499786.97     -23460.396      248.24676      3360.5072      2.1697074      39986.683    
     37240   299.73873     -503807.85     -499777.44     -21019.864      394.30824      3398.675       2.1698746      39983.602    
     37260   300.29132     -503800.55     -499762.7      -24419.367      243.30742      3349.6918      2.169665       39987.465    
     37280   303.99104     -503837.66     -499750.07     -20952.438      466.67868      3351.9345      2.1697521      39985.86     
     37300   299.76334     -503769.38     -499738.63     -19396.46       357.42326      3351.5074      2.1697521      39985.86     
     37320   297.79395     -503733.71     -499729.45     -19276.032      215.85719      3319.7493      2.1697613      39985.691    
     37340   299.3425      -503739.74     -499714.65     -24006.828      262.80593      3252.7108      2.1697168      39986.51     
     37360   298.40404     -503708.21     -499695.74     -24520.361      191.05138      3320.5263      2.1697642      39985.637    
     37380   303.80438     -503759.84     -499674.75     -26318.758      252.93042      3314.6165      2.1697311      39986.248    
     37400   304.96073     -503749.67     -499649.04     -23565.051      254.8041       3295.0716      2.1697064      39986.703    
     37420   302.78819     -503699.51     -499628.09     -14804.722      476.27405      3432.2404      2.1696718      39987.341    
     37440   303.25409     -503684.05     -499606.37     -23456.501      330.74325      3382.0943      2.1697284      39986.296    
     37460   300.71927     -503625.68     -499582.07     -25565.575      415.74148      3397.8387      2.1697974      39985.026    
     37480   305.79636     -503669.43     -499557.56     -15643.193      466.2423       3525.7774      2.169767       39985.585    
     37500   307.40456     -503669.18     -499535.68     -28684.355      300.42257      3386.7027      2.1696887      39987.028    
     37520   311.66221     -503714.34     -499523.59     -24246.793      209.96435      3308.4959      2.169825       39984.516    
     37540   311.89313     -503709.75     -499515.9      -22335.389      287.58928      3380.2855      2.1697319      39986.232    
     37560   305.90479     -503639.9      -499526.57     -25036.158      249.85883      3413.4564      2.1697803      39985.341    
     37580   305.55121     -503661.74     -499553.16     -19381.487      296.41304      3472.225       2.1697631      39985.658    
     37600   304.06384     -503683.7      -499595.12     -19003.103      239.42264      3343.7623      2.1698536      39983.989    
     37620   301.84303     -503709.73     -499651.02     -22641.419      355.42087      3380.5815      2.1697704      39985.523    
     37640   299.5582      -503717.45     -499689.46     -20250.067      284.73695      3419.9382      2.1700101      39981.105    
     37660   298.61235     -503722.69     -499707.41     -20964.435      243.71657      3349.3718      2.169729       39986.285    
     37680   301.84943     -503776.47     -499717.67     -27392.026      323.46367      3351.1124      2.1699879      39981.516    
     37700   300.72861     -503770.39     -499726.66     -20139.371      295.32527      3345.9337      2.1697485      39985.926    
     37720   299.01404     -503755.49     -499734.82     -19402.853      294.85167      3379.6287      2.1697933      39985.102    
     37740   297.96543     -503747.07     -499740.49     -26698.48       281.55564      3311.7217      2.1697339      39986.196    
     37760   295.65898     -503722.02     -499746.47     -27354.486      297.57953      3387.3231      2.1697534      39985.837    
     37780   299.92847     -503780.97     -499748        -21425.946      246.52229      3352.1318      2.1698531      39983.998    
     37800   302.7433      -503819.08     -499748.26     -23140.683      194.23366      3265.856       2.1696961      39986.893    
     37820   302.82083     -503821.16     -499749.3      -23501.661      258.3278       3277.066       2.1698597      39983.877    
     37840   302.44748     -503822.27     -499755.43     -23423.592      244.56415      3301.5062      2.1698204      39984.602    
     37860   305.1198      -503866.35     -499763.58     -26294.23       454.64535      3346.3443      2.1697701      39985.528    
     37880   306.0003      -503892.11     -499777.5      -24791.469      298.65383      3318.8659      2.1698764      39983.569    
     37900   304.56669     -503897.15     -499801.82     -20879.911      522.30158      3484.7511      2.1699288      39982.605    
     37920   298.01176     -503835.51     -499828.31     -20040.774      265.54456      3310.9231      2.1697087      39986.66     
     37940   291.79834     -503770.5      -499846.85     -16697.756      453.67006      3487.3514      2.169778       39985.383    
     37960   292.13842     -503782.28     -499854.06     -20090.018      229.67916      3379.7125      2.1699923      39981.434    
     37980   297.16896     -503851.86     -499856        -26348.167      210.80405      3285.6467      2.1697942      39985.084    
     38000   297.94395     -503865.48     -499859.2      -23453.978      239.30604      3371.7578      2.1698744      39983.607    
     38020   293.5121      -503803.98     -499857.29     -22010.637      223.35407      3338.3595      2.1698158      39984.686    
     38040   292.9252      -503785.3      -499846.5      -19174.968      261.88122      3386.4249      2.1698532      39983.998    
     38060   294.21671     -503783.07     -499826.91     -24472.361      260.05709      3386.7634      2.1696901      39987.003    
     38080   297.12129     -503800.19     -499804.97     -25213.212      402.27042      3402.7795      2.1698367      39984.301    
     38100   298.62667     -503793.74     -499778.28     -24330.865      318.10476      3352.1266      2.169706       39986.71     
     38120   297.0573      -503751.02     -499756.66     -22624.082      219.74166      3331.9892      2.1699622      39981.989    
     38140   298.36282     -503747.46     -499735.54     -23507.353      343.85275      3375.3622      2.169744       39986.009    
     38160   303.07524     -503796.12     -499720.84     -27075.275      243.30629      3313.9809      2.1697206      39986.442    
     38180   304.00868     -503798.86     -499711.02     -23172.474      250.73815      3320.424       2.1697436      39986.016    
     38200   302.02066     -503770.44     -499709.34     -20146.491      282.13211      3283.1327      2.1697283      39986.299    
     38220   300.51253     -503748.55     -499707.73     -15417.427      376.49582      3419.8071      2.1697281      39986.302    
     38240   298.04616     -503713.25     -499705.59     -17058.154      254.58622      3346.1919      2.1697001      39986.818    
     38260   299.13807     -503723.2      -499700.86     -23059.231      294.77117      3307.7209      2.1697661      39985.603    
     38280   299.10274     -503719.91     -499698.05     -23152.986      318.59798      3337.8667      2.1697428      39986.031    
     38300   297.23081     -503692.81     -499696.12     -21799.092      257.53489      3339.7346      2.1697231      39986.395    
     38320   297.37133     -503688.52     -499689.94     -22252.343      278.25129      3344.3374      2.1697229      39986.399    
     38340   298.18861     -503689.16     -499679.59     -21645.588      368.39715      3364.6674      2.169747       39985.953    
     38360   302.52824     -503736.02     -499668.09     -22145.527      217.13012      3287.3473      2.1697823      39985.304    
     38380   302.37613     -503719.74     -499653.86     -23458.401      215.72788      3314.9462      2.1698871      39983.372    
     38400   300.4521      -503680.11     -499640.1      -27032.458      205.21623      3375.2004      2.1698067      39984.853    
     38420   302.01472     -503689.72     -499628.7      -29270.753      226.38987      3340.0391      2.1696788      39987.212    
     38440   301.6944      -503671.19     -499614.48     -30327.528      290.42708      3423.1551      2.1697206      39986.441    
     38460   301.85743     -503660.06     -499601.15     -25148.362      362.8192       3469.7204      2.1697176      39986.496    
     38480   305.04991     -503684.27     -499582.43     -23408.156      249.81624      3437.0707      2.1697611      39985.694    
     38500   307.93554     -503707.83     -499567.19     -20395.514      383.85788      3492.8286      2.1697171      39986.505    
     38520   308.15004     -503695.55     -499552.03     -23644.813      246.99051      3440.4446      2.1697902      39985.157    
     38540   308.09274     -503686.66     -499543.91     -16660.211      331.60503      3512.1512      2.1697029      39986.767    
     38560   307.59699     -503680.22     -499544.14     -22675.605      239.98438      3365.7521      2.1697052      39986.724    
     38580   306.13152     -503673.56     -499557.19     -17683.161      246.93613      3418.2913      2.169688       39987.041    
     38600   303.8111      -503663.7      -499578.53     -18649.943      272.14932      3525.7648      2.1696747      39987.287    
     38620   304.29973     -503699.23     -499607.48     -17451.039      306.50929      3420.8606      2.1696854      39987.089    
     38640   302.03874     -503703.21     -499641.87     -21911.179      220.01637      3307.7395      2.1697564      39985.782    
     38660   298.31739     -503682.17     -499670.86     -20892.917      242.61353      3452.3415      2.1699944      39981.396    
     38680   301.4986      -503749.56     -499695.48     -23096.137      226.29456      3402.9111      2.1698167      39984.67     
     38700   304.79585     -503810.9      -499712.48     -28735.083      230.67431      3288.6499      2.1698522      39984.016    
     38720   304.03692     -503818.77     -499730.56     -28369.205      264.89372      3336.0941      2.1698355      39984.324    
     38740   300.62378     -503794.42     -499752.1      -23053.777      215.66523      3372.9688      2.1698082      39984.826    
     38760   296.05739     -503748.75     -499767.84     -29488.532      280.75963      3387.761       2.1697927      39985.112    
     38780   297.13337     -503770.79     -499775.41     -26219.402      350.94667      3400.7134      2.1698885      39983.347    
     38800   296.83924     -503771.06     -499779.63     -24627.82       277.39288      3446.248       2.1698776      39983.548    
     38820   298.97362     -503802.72     -499782.59     -23268.986      315.81106      3410.3058      2.1697354      39986.168    
     38840   299.90831     -503815.94     -499783.24     -20377.712      319.28956      3497.4826      2.1697297      39986.274    
     38860   299.13362     -503808.58     -499786.3      -17011.236      319.85361      3462.8265      2.1698299      39984.427    
     38880   302.80342     -503860.5      -499788.88     -20467.747      261.58376      3320.924       2.1697353      39986.169    
     38900   297.21018     -503787.09     -499790.67     -16030.631      308.15824      3430.6177      2.169844       39984.166    
     38920   296.91479     -503784.61     -499792.17     -17538.077      197.95233      3358.9371      2.1696639      39987.485    
     38940   302.18879     -503853.87     -499790.51     -18860.72       209.52042      3246.4865      2.1698761      39983.576    
     38960   300.91038     -503835.05     -499788.88     -26276.456      231.60952      3332.0918      2.1698913      39983.295    
     38980   303.50517     -503872.79     -499791.73     -24027.694      204.63069      3244.6314      2.1697017      39986.79     
     39000   299.43916     -503823.04     -499796.65     -26292.696      265.16608      3306.8353      2.1696893      39987.018    
     39020   297.77318     -503808.09     -499804.1      -27829.377      281.54406      3327.5064      2.1697211      39986.432    
     39040   298.41208     -503823.68     -499811.1      -23287.337      258.58997      3298.7033      2.1698448      39984.153    
     39060   295.56929     -503791.67     -499817.32     -26869.118      263.85948      3313.0805      2.1698028      39984.925    
     39080   296.10924     -503800.7      -499819.08     -20909.932      601.45547      3546.5594      2.1696984      39986.849    
     39100   297.6326      -503819.73     -499817.63     -24192.316      349.85152      3392.3561      2.1698577      39983.915    
     39120   297.40075     -503813.5      -499814.52     -29347.426      425.10362      3321.9708      2.1698516      39984.026    
     39140   296.54062     -503793.38     -499805.96     -15480.799      787.45737      3703.1795      2.1697348      39986.178    
     39160   295.79127     -503768.82     -499791.48     -19752.067      259.57259      3397.7875      2.1697049      39986.731    
     39180   300.28977     -503807.52     -499769.69     -20578.408      504.24149      3548.5326      2.1697628      39985.662    
     39200   300.76334     -503787.9      -499743.71     -21122.148      1003.6724      3785.9828      2.1697478      39985.94     
     39220   303.72961     -503806.87     -499722.79     -19116.095      224.44435      3342.756       2.169784       39985.272    
     39240   304.98434     -503806.63     -499705.68     -25112.569      289.50714      3323.9463      2.169829       39984.444    
     39260   304.26031     -503788.27     -499697.05     -19314.399      260.67378      3388.8262      2.1697196      39986.459    
     39280   301.21862     -503742.43     -499692.12     -25130.635      289.26477      3369.6919      2.16984        39984.24     
     39300   297.08718     -503682.41     -499687.64     -23105.22       265.71147      3400.7367      2.1698688      39983.71     
     39320   298.92096     -503699.64     -499680.22     -16995.309      320.99887      3301.6001      2.1698189      39984.63     
     39340   296.68008     -503658.78     -499669.49     -27045.958      258.73275      3428.8654      2.1700336      39980.673    
     39360   299.81614     -503687.1      -499655.64     -24249.243      265.99526      3351.1817      2.1697975      39985.023    
     39380   302.07072     -503701.62     -499639.84     -25739.481      237.80524      3353.2979      2.1697601      39985.713    
     39400   302.14811     -503689.94     -499627.12     -22209.763      273.42621      3381.3482      2.1702543      39976.608    
     39420   304.64141     -503709.2      -499612.86     -26491.249      227.33215      3401.5949      2.1699444      39982.317    
     39440   307.33889     -503737.59     -499604.98     -17045.039      280.86768      3396.8224      2.1699495      39982.223    
     39460   307.63781     -503737.99     -499601.36     -22602.338      252.01535      3359.7212      2.1697453      39985.986    
     39480   305.4502      -503716.16     -499608.95     -24606.837      381.9847       3301.2518      2.1698154      39984.693    
     39500   296.48265     -503606.06     -499619.42     -22233.679      317.30201      3420.6783      2.1698066      39984.856    
     39520   297.78928     -503641.98     -499637.78     -18548.467      361.24652      3402.007       2.1697508      39985.883    
     39540   303.20051     -503736.01     -499659.05     -22672.746      253.8372       3312.4908      2.1696973      39986.87     
     39560   302.81775     -503764.13     -499692.31     -18052.814      278.3213       3381.8005      2.169717       39986.508    
     39580   300.83329     -503774.15     -499729.02     -26532.929      331.1177       3325.591       2.1697716      39985.501    
     39600   295.602       -503734.25     -499759.45     -24471.632      219.22427      3305.3759      2.1699408      39982.383    
     39620   296.52718     -503764.59     -499777.36     -24688.593      297.20532      3354.9693      2.1699121      39982.912    
     39640   299.02452     -503810.51     -499789.69     -26920.254      286.17451      3371.8068      2.1697678      39985.571    
     39660   296.36442     -503784.72     -499799.68     -21162.989      248.40213      3351.1694      2.1701744      39978.08     
     39680   297.87886     -503808.23     -499802.82     -21413.947      386.73861      3353.7051      2.1699199      39982.768    
     39700   293.97241     -503754.4      -499801.52     -22398.451      345.85637      3395.808       2.1703851      39974.198    
     39720   293.83494     -503743.29     -499792.26     -22521.271      331.44366      3411.486       2.1701136      39979.199    
     39740   297.00835     -503776.63     -499782.93     -24000.102      642.80707      3557.5185      2.1700345      39980.657    
     39760   296.65222     -503758.59     -499769.67     -24585.761      417.23861      3454.6861      2.169766       39985.605    
     39780   300.36802     -503791.65     -499752.77     -21882.173      368.04528      3426.4203      2.1699546      39982.128    
     39800   299.49915     -503763.83     -499736.63     -23372.627      272.96255      3340.9563      2.1697979      39985.016    
     39820   296.92848     -503711.29     -499718.66     -16907.758      353.77333      3470.0101      2.1698374      39984.288    
     39840   299.73933     -503728.59     -499698.17     -25429.733      276.19994      3413.0719      2.1699243      39982.687    
     39860   299.2237      -503705.69     -499682.2      -23629.74       390.97435      3430.5706      2.1701251      39978.987    
     39880   302.36012     -503730.63     -499664.97     -22010.378      439.32144      3501.1798      2.1698668      39983.746    
     39900   301.90076     -503713.65     -499654.16     -26546.833      465.60149      3483.3073      2.1698787      39983.527    
     39920   300.60624     -503690.65     -499648.57     -24929.632      580.75885      3503.9279      2.1699635      39981.965    
     39940   299.91761     -503678.14     -499645.32     -19308.624      739.03425      3628.6187      2.1699075      39982.996    
     39960   298.96287     -503658.35     -499638.37     -25394.878      714.37869      3602.4926      2.1698458      39984.134    
     39980   303.2933      -503712.99     -499634.78     -20092.95       229.69003      3355.6731      2.1697534      39985.836    
     40000   301.99001     -503693.09     -499632.4      -20629.745      446.84897      3518.6379      2.1697861      39985.233    
Loop time of 1911.36 on 32 procs for 40000 steps with 4512 atoms

Performance: 0.181 ns/day, 132.734 hours/ns, 20.927 timesteps/s, 94.425 katom-step/s
99.1% CPU use with 32 MPI tasks x 1 OpenMP threads

MPI task timing breakdown:
Section |  min time  |  avg time  |  max time  |%varavg| %total
---------------------------------------------------------------
Pair    | 1126.7     | 1231.1     | 1339.5     | 262.2 | 64.41
Neigh   | 55.559     | 57.287     | 59.309     |  14.1 |  3.00
Comm    | 9.7278     | 120.44     | 222        | 839.0 |  6.30
Output  | 0.36493    | 0.44082    | 0.87139    |  12.6 |  0.02
Modify  | 497.57     | 501.42     | 505.61     |  10.5 | 26.23
Other   |            | 0.7097     |            |       |  0.04

Nlocal:            141 ave         151 max         134 min
Histogram: 3 5 5 2 5 7 1 2 1 1
Nghost:        2621.31 ave        2672 max        2591 min
Histogram: 7 4 5 4 0 3 3 1 4 1
Neighs:        78095.7 ave       84758 max       73706 min
Histogram: 6 3 5 3 5 2 4 1 1 2

Total # of neighbors = 2499061
Ave neighs/atom = 553.8699
Neighbor list builds = 4000
Dangerous builds not checked


write_data      final.lmpdata
System init for write_data ...
Total wall time: 0:31:51
