ITEM: TIMESTEP
0
ITEM: NUMBER OF ATOMS
5160
ITEM: BOX BOUNDS xy xz yz pp ff pp
0.0000000000000000e+00 6.9085630000000000e+00 0.0000000000000000e+00
0.0000000000000000e+00 3.0000000000000000e+02 0.0000000000000000e+00
0.0000000000000000e+00 3.9715601999999997e+01 0.0000000000000000e+00
ITEM: ATOMS id q xu yu zu
1 0.139771 13.9695 12.6517 3.68518
2 -0.147749 14.9237 12.1651 3.48105
3 0.286831 15.9243 12.7794 2.62466
4 0.132809 18.2884 7.24495 4.55908
5 0.102864 14.3984 10.4284 4.67607
6 0.142194 17.855 8.55742 6.7542
7 -0.113022 15.2313 10.918 4.08966
8 -0.165845 17.2796 12.302 2.72327
9 0.139902 18.1343 12.9126 2.35667
10 -0.0101031 16.5325 10.2438 4.0026
11 -0.316228 18.0872 8.20327 4.05922
12 -0.10393 17.5232 11.0385 3.28253
13 0.124616 17.9014 8.07571 2.97481
14 -0.296488 17.4881 9.41019 6.16456
15 0.116447 19.0589 8.71059 4.19497
16 0.112452 18.5232 10.5936 3.25421
17 0.0160785 16.8939 8.98789 4.75792
18 0.13721 18.2785 10.1757 6.03912
19 0.144564 16.723 9.89466 6.82388
20 -0.00952412 15.8241 7.99447 5.1032
21 0.123396 16.4383 6.54108 3.65637
22 0.122705 14.81 9.16901 6.72456
23 -0.112824 15.7511 6.68704 4.45918
24 -0.108338 14.8787 8.19715 6.21289
25 -0.135178 14.9763 5.62606 4.98462
26 -0.145991 14.0922 7.18495 6.7637
27 0.159717 14.9561 4.62585 4.56509
28 0.147839 13.4586 7.38512 7.62194
29 0.253839 14.2141 5.83425 6.20325
30 -0.49003 13.906 4.73773 6.92087
31 0.175628 15.0935 4 9.14078
32 0.261746 13.3471 4.87018 8.1457
33 -0.113537 14.0989 4.44506 9.29457
34 0.161227 11.4717 5.68832 7.52033
35 -0.146732 12.0696 5.43239 8.41223
36 -0.0825588 13.7485 4.73036 10.6476
37 0.168108 14.3926 4.41946 11.4533
38 -0.0449408 11.558 5.68517 9.73818
39 -0.0514513 12.4254 5.26819 10.8974
40 0.374054 10.3381 6.36484 10.3312
41 -0.461176 9.41566 6.7868 9.65955
42 0.382218 11.7761 5.58223 12.2534
43 -0.453583 10.4342 6.31256 11.8625
44 -0.427742 12.2951 5.26265 13.266
45 0.176383 7.65898 6.81436 11.8356
46 0.171719 9.52904 6.94527 12.8977
47 -0.114954 8.13528 7.20177 12.717
48 0.23376 11.0159 7.2008 14.4385
49 -0.137991 9.99546 7.48117 14.1394
50 -0.0388542 7.4209 8.09443 13.5969
51 0.177073 6.35777 8.33592 13.377
52 0.185002 9.35916 8.33287 15.1067
53 -0.0857649 8.01876 8.7062 14.7236
54 -0.446849 12.3285 8.07617 16.0676
55 -0.419578 10.0365 8.84398 16.3433
56 0.213654 7.41493 9.39391 15.3277
57 0.399635 11.4678 8.56344 16.7641
58 -0.481078 8.50561 10.6781 17.3188
59 0.38434 9.5177 10.0643 17.2973
60 -0.044277 11.7983 9.32825 18.057
61 -0.057858 10.6322 10.2566 18.3141
62 0.169404 13.7678 8.65395 18.7765
63 -0.0612399 12.9518 9.33811 18.9016
64 -0.125386 10.6367 11.1441 19.4526
65 0.163023 9.75944 11.7651 19.7272
66 -0.155107 12.8878 10.2486 20.0091
67 0.225866 11.8024 11.1439 20.2534
68 0.152344 13.7664 10.3202 20.6715
69 0.167993 13.7034 12.2574 19.0755
70 -0.492705 11.8075 12.2876 21.1124
71 -0.159296 13.7177 13.0814 19.7863
72 0.266371 12.7761 13.1392 20.8982
73 0.12624 15.4568 13.894 18.7645
74 0.131475 16.7658 15.5601 18.3258
75 0.165076 14.9437 17.3362 19.4538
76 -0.101813 14.7348 14.0279 19.5916
77 -0.127998 12.9328 14.2748 21.7914
78 0.175514 12.2383 14.4246 22.6273
79 -0.308797 17.2685 15.4996 19.3001
80 -0.0158258 15.0532 15.0444 20.5871
81 -0.314698 15.8497 17.3595 20.0751
82 0.140592 18.2089 16.1435 19.2531
83 -0.106442 14.0718 15.1084 21.6628
84 0.112201 15.4851 17.9081 20.9842
85 0.150346 17.6432 14.4615 19.55
86 0.140221 16.6385 17.9373 19.6744
87 0.0232714 16.2981 15.951 20.4287
88 0.133856 14.1633 15.8895 22.4419
89 -0.0110618 17.1813 16.0951 21.6949
90 0.147461 16.0676 14.6322 22.8788
91 0.114551 18.6759 17.6289 21.0028
92 -0.106561 16.8172 15.4121 22.941
93 -0.119461 18.282 17.0362 21.8334
94 -0.159135 17.4179 15.6966 24.1939
95 -0.156349 18.9413 17.2038 23.0922
96 0.145744 17.052 15.1935 25.0468
97 0.12415 19.7665 17.8957 23.0972
98 0.226971 18.6198 16.5255 24.3041
99 -0.513149 19.5931 16.3656 25.2943
100 0.154881 21.1517 15.0699 27.0148
101 0.279917 19.2877 16.2415 26.5569
102 -0.129027 20.221 15.4866 27.4117
103 0.156049 17.3886 17.3847 26.4926
104 -0.150914 18.048 16.7845 27.1154
105 -0.0820457 19.9784 15.1935 28.7464
106 0.168068 20.681 14.6672 29.3432
107 -0.0569741 17.7807 16.4613 28.4772
108 -0.0505488 18.7399 15.603 29.3323
109 0.387272 16.5609 16.8931 29.259
110 -0.476702 15.7172 17.6714 28.9078
111 0.365432 18.105 15.3658 30.6777
112 -0.456538 16.6661 16.1821 30.5981
113 -0.420188 18.5939 14.6865 31.5174
114 0.183642 15.7344 16.3381 31.7453
115 0.25084 16.9317 15.192 33.0873
116 0.18526 14.2597 17.5843 30.6036
117 -0.116876 15.9597 15.7502 33.032
118 -0.116619 14.5303 17.1107 31.5895
119 0.208817 15.097 15.8798 34.1856
120 -0.0643383 13.6145 17.1656 32.6703
121 0.172816 12.6907 17.7149 32.5345
122 -0.449363 13.5278 16.0034 36.949
123 -0.0811558 13.8367 16.5283 33.9208
124 -0.397548 15.4584 15.4703 35.5428
125 0.398755 14.5679 15.4414 36.8142
126 -0.406498 17.3724 13.9677 35.0867
127 0.377915 16.6733 14.4675 35.9073
128 0.231886 13.1302 16.5184 34.6914
129 -0.0566887 15.2893 14.7065 37.9439
130 -0.0571541 16.5499 14.083 37.3495
131 0.174957 14.0643 14.9044 39.7394
132 -0.120195 15.0053 14.5145 39.3325
133 -0.0778954 17.4297 13.2832 38.1826
134 0.160057 18.3315 12.9246 37.6694
135 0.253405 15.9093 13.7454 40.1225
136 -0.152701 17.0842 13.1049 39.5362
137 -0.514012 15.421 13.5387 41.3972
138 0.139859 17.7441 12.4872 40.1742
139 0.152529 15.4513 16.6214 2.62306
140 -0.157972 16.2355 16.4748 3.32154
141 0.269331 17.626 16.7483 2.97081
142 0.142127 18.3954 14.4317 7.81622
143 0.118943 14.8963 15.6964 4.79831
144 0.114425 14.8291 17.0586 7.12543
145 -0.0963526 15.9536 15.916 4.57226
146 -0.139009 18.6569 16.538 3.99645
147 0.146463 19.6754 16.7729 3.7907
148 -0.00914081 16.9205 15.694 5.66351
149 -0.307816 17.8139 15.3931 7.97657
150 -0.110239 18.3107 15.9345 5.22634
151 0.119248 18.5284 16.2004 7.8323
152 -0.315889 15.8682 16.9525 7.44293
153 0.147731 17.5387 15.4602 9.0761
154 0.10912 19.1354 15.8241 5.94005
155 0.0212002 16.5227 15.5336 7.07443
156 0.130496 15.8793 17.1919 8.54965
157 0.156058 16.3946 17.7748 6.96842
158 -0.0094656 15.4762 14.5019 7.39098
159 0.143501 15.7413 13.1486 5.643
160 0.139992 14.9571 15.4342 9.41055
161 -0.107207 15.1511 13.3679 6.51345
162 -0.10428 14.7756 14.6197 8.66806
163 -0.150279 14.1762 12.4657 6.90681
164 -0.165797 13.8451 13.6407 9.06993
165 0.128034 14.0084 11.541 6.38323
166 0.158293 13.4816 13.7149 10.0864
167 0.253595 13.4832 12.5332 8.22913
168 -0.521656 12.5012 11.6575 8.54014
169 0.155874 11.6565 9.4671 9.91262
170 0.265466 11.7722 11.6503 9.68128
171 -0.122854 11.1684 10.4266 10.1708
172 0.144562 11.4803 13.7904 9.9434
173 -0.139477 11.0555 12.8194 10.1387
174 -0.0798103 10.0245 10.2549 11.0429
175 0.165983 9.69423 9.30222 11.3673
176 -0.0252054 9.89695 12.7575 10.977
177 -0.0490413 9.32881 11.4641 11.4148
178 0.372304 9.176 13.8707 11.7879
179 -0.451116 9.55993 14.9934 11.8177
180 0.4095 7.99793 11.6588 12.2325
181 -0.439731 7.95433 13.155 12.5509
182 -0.469182 7.11583 10.8875 12.436
183 0.176792 5.34818 12.5098 13.6606
184 0.180879 7.08952 13.8659 13.5496
185 -0.108235 5.79044 13.4627 14.0716
186 0.245934 8.46778 15.4533 13.7381
187 -0.136154 7.5439 15.0624 14.1603
188 -0.0747174 5.19616 14.1708 15.1597
189 0.135897 4.25756 13.8114 15.6065
190 0.180429 6.98959 15.8822 15.204
191 -0.116737 5.76597 15.3563 15.7221
192 -0.394716 9.91127 17.259 14.3389
193 -0.415035 7.67924 17.1569 15.5703
194 0.17037 5.23497 15.9091 16.4896
195 0.382185 9.1985 17.5526 15.2398
196 -0.51919 6.51685 17.6509 17.6254
197 0.382592 7.46317 17.856 16.9004
198 -0.0421727 9.75393 18.4645 16.3197
199 -0.0735387 8.65711 18.757 17.3003
200 0.206916 11.887 18.9232 15.821
201 -0.0368568 11.0479 19.1318 16.5022
202 -0.140394 8.84267 19.7728 18.3017
203 0.166053 8.01516 20.0398 18.9759
204 -0.149125 11.2414 20.0447 17.5559
205 0.256228 10.1287 20.389 18.4754
206 0.177451 12.2062 20.5226 17.6792
207 0.173274 10.8455 23.1833 21.042
208 -0.491231 10.2955 21.2995 19.4471
209 -0.115688 11.4848 22.3011 21.1849
210 0.261564 11.3276 21.1837 20.3088
211 0.127015 12.5906 23.2078 22.8635
212 0.115542 15.5117 19.3659 22.6655
213 0.125565 15.8607 22.4282 24.13
214 -0.114754 12.4506 22.3041 22.2365
215 -0.172666 12.1156 20.0084 20.5078
216 0.135638 12.0082 19.1452 19.8266
217 -0.31482 15.1096 19.6694 23.6727
218 -0.00534612 13.2613 21.1388 22.4464
219 -0.308155 15.2543 22.1942 23.2624
220 0.123831 15.9679 19.7449 24.3837
221 -0.118252 13.0096 19.9722 21.6213
222 0.137984 16.0764 21.8805 22.6429
223 0.140159 14.4847 18.8762 24.0378
224 0.15224 14.779 23.0157 22.7408
225 0.0157269 14.2551 21.0287 23.5533
226 0.101117 13.6628 19.0933 21.7795
227 -0.00503272 13.5315 21.1541 24.8712
228 0.119804 11.5776 20.4031 24.1146
229 0.119894 15.3889 21.6405 25.9917
230 -0.109296 12.1324 20.7661 24.9929
231 -0.100523 14.2756 21.5308 26.0985
232 -0.152834 11.4804 20.9171 26.2427
233 -0.125375 13.5943 21.6944 27.3107
234 0.136022 10.421 20.696 26.4045
235 0.161505 14.1505 21.9738 28.2472
236 0.251179 12.1506 21.5372 27.369
237 -0.502365 11.4809 22.0942 28.4182
238 0.161195 11.4709 19.3655 28.8266
239 0.258094 11.0779 21.4323 29.5215
240 -0.14376 11.1379 19.9887 29.6263
241 0.186284 10.3162 23.2816 30.5288
242 -0.117102 10.5385 22.1945 30.63
243 -0.0801074 10.899 19.3357 30.8567
244 0.157876 10.9922 18.2505 30.9837
245 -0.0301373 10.3227 21.6239 31.9131
246 -0.0615656 10.5091 20.1156 32.0084
247 0.377663 10.091 22.1342 33.3274
248 -0.39571 9.75291 23.307 33.4698
249 0.389788 10.5737 19.6952 33.4776
250 -0.413544 10.4339 21.0139 34.2966
251 -0.43448 10.9331 18.6291 33.9351
252 0.170367 10.7567 21.1854 35.8099
253 0.218728 12.666 20.3859 35.5673
254 0.173251 8.80053 22.0913 36.2805
255 -0.13305 11.9366 20.663 36.3854
256 -0.110489 9.74373 21.6522 36.7121
257 0.180135 12.2116 20.4521 37.7525
258 -0.08606 9.90374 21.3903 38.0994
259 0.151027 9.14132 21.7333 38.848
260 -0.443386 13.3292 19.7341 40.7025
261 -0.115491 11.0993 20.8236 38.6031
262 -0.428645 13.5366 19.9046 38.237
263 0.38053 13.9082 19.4457 39.6747
264 -0.416655 14.5217 19.0605 36.1404
265 0.396267 14.5783 19.1584 37.3321
266 0.198861 11.1988 20.7142 39.6923
267 -0.0469075 15.2161 18.6844 39.61
268 -0.0312949 15.615 18.4538 38.1937
269 0.154981 15.7782 18.4205 41.7112
270 -0.146833 16.0603 18.1737 40.6919
271 -0.0612393 16.8095 17.6371 37.9666
272 0.196787 17.1695 17.4486 36.9723
273 0.253922 17.1536 17.3117 40.4781
274 -0.11507 17.525 17.1079 39.0828
275 -0.488162 18.0551 16.9233 41.4556
276 0.189995 18.4016 16.5185 38.8173
277 0.164726 17.2478 25.6304 2.39186
278 -0.152806 17.0439 24.8179 3.0499
279 0.26257 17.4488 23.5109 2.63421
280 0.133976 17.1503 24.3435 7.4319
281 0.124511 16.2114 26.0442 4.6216
282 0.137905 15.2915 25.9825 7.13397
283 -0.113582 16.4374 25.0448 4.32804
284 -0.124556 17.234 22.3849 3.53059
285 0.155955 17.5093 21.3362 3.29869
286 -0.00467292 16.0388 23.9189 5.14251
287 -0.309427 16.2606 23.6915 7.54113
288 -0.103696 16.4903 22.5927 4.71249
289 0.130794 15.7788 23.8581 8.5178
290 -0.310135 14.5142 25.3561 6.62638
291 0.15609 16.5399 22.6351 7.62266
292 0.150102 16.2932 21.7051 5.3326
293 0.0182932 15.2169 23.9514 6.39826
294 0.137337 14.0714 25.8176 5.73297
295 0.121558 13.6767 25.2481 7.36177
296 -0.0165649 14.0844 22.8996 6.48131
297 0.148953 13.9867 22.2295 4.43636
298 0.132794 13.8493 23.2543 8.67529
299 -0.101247 13.5991 22.0569 5.41521
300 -0.106727 13.5077 22.624 7.81477
301 -0.143695 12.611 21.069 5.62141
302 -0.152515 12.6014 21.5972 8.05439
303 0.148837 12.3046 20.4561 4.7615
304 0.181851 12.2775 21.4733 9.05141
305 0.240942 12.0353 20.7991 6.92501
306 -0.526781 10.8747 20.1752 7.13936
307 0.132939 12.6813 19.1818 9.00277
308 0.225805 10.6407 20.0339 8.48196
309 -0.162607 11.6621 19.5824 9.40962
310 0.154183 8.58194 20.645 8.34765
311 -0.148514 9.37843 20.3715 9.0223
312 -0.0534997 11.5575 19.6908 10.8113
313 0.185389 12.345 19.3147 11.4571
314 -0.0466847 9.26037 20.6503 10.4543
315 -0.0485177 10.3379 20.2252 11.4148
316 0.393382 8.09315 21.1181 11.3012
317 -0.511361 7.0768 21.509 10.8005
318 0.402758 9.84069 20.2807 12.8458
319 -0.411997 8.34227 20.8219 12.8151
320 -0.425387 10.5751 20.0457 13.7622
321 0.195334 6.02561 22.2403 12.6142
322 0.186312 7.72874 21.647 13.8733
323 -0.100168 6.60174 22.4589 13.5272
324 0.209251 9.29549 21.5041 15.3862
325 -0.136896 8.362 21.9874 15.1429
326 -0.0805058 5.91577 23.2814 14.4686
327 0.181162 4.99038 23.7349 14.2747
328 0.176299 7.82028 22.8959 16.0819
329 -0.0902179 6.57562 23.4691 15.7159
330 -0.439535 10.3451 24.7241 16.5077
331 -0.399781 8.4328 23.3911 17.4094
332 0.205272 6.09104 24.1454 16.47
333 0.394049 9.72558 24.2933 17.4395
334 -0.450046 6.49757 23.6372 18.8252
335 0.402167 7.62994 23.9103 18.5815
336 -0.0395884 9.83256 24.9463 18.8092
337 -0.0376856 8.50316 24.7647 19.5081
338 0.186205 11.6763 26.0645 18.9436
339 -0.0590001 10.7676 25.8125 19.4709
340 -0.128339 8.23652 25.4542 20.7447
341 0.167151 7.23886 25.3739 21.1935
342 -0.152993 10.4913 26.4279 20.7103
343 0.263099 9.2517 26.1704 21.4233
344 0.178272 11.2054 27.1242 21.1103
345 0.157855 9.24728 28.7755 21.7407
346 -0.514916 9.18591 26.3871 22.714
347 -0.155543 9.92751 28.631 22.5529
348 0.236388 10.0682 27.3428 23.1739
349 0.144592 10.661 30.6647 22.3972
350 0.11789 14.0626 29.7495 25.9208
351 0.146487 12.9152 31.5191 22.5554
352 -0.101673 10.7942 29.6931 22.9112
353 -0.154868 11.0961 27.0937 24.133
354 0.142594 11.179 26.1119 24.61
355 -0.303289 13.9833 30.2816 24.9572
356 -0.0109115 11.7601 29.5379 24.007
357 -0.300767 12.5048 31.8288 23.5072
358 0.142405 14.4804 29.6289 24.209
359 -0.101616 11.8871 28.2025 24.535
360 0.140744 11.5228 32.2345 23.2066
361 0.12839 14.6806 31.1615 25.0118
362 0.150598 13.0688 32.7102 23.8666
363 0.0235582 12.4696 30.7137 24.637
364 0.12033 12.5964 28.006 25.3799
365 -0.00605346 11.7943 31.301 25.8196
366 0.12979 9.96093 30.0638 25.5928
367 0.118757 13.4237 32.7405 26.2841
368 -0.119689 10.4817 30.8248 26.1549
369 -0.109275 12.4647 32.2954 26.6633
370 -0.155954 9.84765 31.2853 27.3475
371 -0.160885 11.8837 32.7004 27.8444
372 0.135855 8.84868 30.9504 27.6507
373 0.152159 12.3135 33.4538 28.4799
374 0.245838 10.5923 32.1202 28.2502
375 -0.511668 10.0144 32.2531 29.4615
376 0.134313 12.0785 30.5463 29.1556
377 0.263413 10.7261 31.7548 30.4752
378 -0.154391 11.8668 30.8619 30.2129
379 0.190157 9.51349 32.8113 31.9735
380 -0.112667 10.3584 32.1532 31.817
381 -0.0681117 12.6236 30.3415 31.2612
382 0.151065 13.4594 29.6543 31.0533
383 -0.0277979 11.0449 31.5392 32.9029
384 -0.0447357 12.298 30.6823 32.6479
385 0.384995 10.8378 31.697 34.3871
386 -0.42021 9.98631 32.385 34.8928
387 0.397177 12.8268 30.1755 33.9324
388 -0.422577 12.0088 30.7526 35.0839
389 -0.417983 13.5679 29.2273 34.0693
390 0.196793 11.9328 29.9775 36.3261
391 0.251149 13.6596 28.622 36.0217
392 0.179972 10.1443 31.0439 37.1067
393 -0.130064 12.8289 28.8698 36.7038
394 -0.095897 10.8968 30.2772 37.2778
395 0.177829 12.9007 28.2698 37.9851
396 -0.0637056 10.8426 29.5588 38.4938
397 0.153909 9.99651 29.7627 39.2652
398 -0.468855 13.3861 26.6202 40.6798
399 -0.10847 11.7794 28.5374 38.8436
400 -0.435526 14.1074 27.6103 38.5064
401 0.403538 14.0691 26.6372 39.7096
402 -0.414743 16.0252 27.8196 36.7522
403 0.370712 15.4765 27.2775 37.6668
404 0.184372 11.6715 27.9556 39.7674
405 -0.0471265 15.2753 25.7086 39.5632
406 -0.0478905 16.1042 26.1031 38.3495
407 0.175107 15.1408 24.4392 41.4393
408 -0.142573 15.6994 24.7075 40.5088
409 -0.0865504 17.2687 25.3397 38.019
410 0.173495 17.7972 25.5804 37.1134
411 0.234707 16.9083 23.9852 40.1766
412 -0.134298 17.5542 24.2528 38.8967
413 -0.49226 17.5804 23.1796 41.0381
414 0.160761 18.4337 23.6564 38.5724
415 0.159566 13.9529 33.6402 1.49521
416 -0.148171 14.0969 32.9441 2.3059
417 0.274483 14.6163 31.5927 2.07996
418 0.128303 15.1956 33.9932 6.60759
419 0.1268 13.4092 34.4352 3.78091
420 0.121709 11.7038 34.1963 6.87648
421 -0.104125 13.7981 33.4084 3.60121
422 -0.123831 15.0554 30.7708 3.20348
423 0.152533 15.564 29.7979 3.07291
424 -0.01076 13.9673 32.4695 4.71746
425 -0.309823 14.5167 33.188 7.05864
426 -0.11282 14.6696 31.2036 4.4827
427 0.11578 14.1431 33.5651 8.06113
428 -0.312487 12.3036 34.002 5.91973
429 0.141236 15.1418 32.32 7.22982
430 0.14007 14.7573 30.5935 5.36288
431 0.0145715 13.3218 32.7859 6.07047
432 0.132886 12.8023 34.9437 5.64977
433 0.140455 11.5583 33.7495 5.17153
434 -0.0100823 12.5879 31.6225 6.56849
435 0.139182 11.988 31.0215 4.52138
436 0.122866 12.9569 31.8448 8.79974
437 -0.110328 11.8658 30.83 5.5684
438 -0.105631 12.4542 31.2568 7.98392
439 -0.142326 11.061 29.766 5.98381
440 -0.153802 11.7014 30.1683 8.39694
441 0.143051 10.6006 29.1366 5.26437
442 0.171668 11.58 29.9625 9.48394
443 0.25899 10.9347 29.3912 7.39305
444 -0.531648 9.9317 28.5478 7.59166
445 0.140471 11.7884 27.1931 9.05642
446 0.242813 9.73717 27.9324 8.79669
447 -0.155454 10.8137 27.2439 9.49831
448 0.158992 7.61664 28.4233 8.6651
449 -0.133412 8.4173 28.0063 9.29037
450 -0.0677762 10.5642 26.6809 10.7624
451 0.154735 11.3744 26.1918 11.3372
452 -0.0510226 8.12058 27.503 10.5963
453 -0.0603744 9.2402 26.7774 11.329
454 0.377022 6.97336 27.5519 11.5854
455 -0.450274 6.11409 28.4023 11.5473
456 0.380642 8.74444 26.3106 12.6939
457 -0.424512 7.21903 26.6707 12.798
458 -0.445279 9.40047 25.6479 13.4388
459 0.192676 4.65108 27.2699 13.349
460 0.177172 6.61087 27.0079 14.1709
461 -0.0901053 5.23924 27.3282 14.2533
462 0.204744 8.39867 26.988 15.3002
463 -0.135089 7.323 27.2341 15.387
464 -0.0628966 4.63905 27.8068 15.4725
465 0.178758 3.6031 28.0225 15.4869
466 0.172662 6.8439 27.7678 16.6222
467 -0.108516 5.45209 28.015 16.6256
468 -0.442586 8.89638 30.1303 16.183
469 -0.433138 7.66233 28.4953 17.7043
470 0.192415 4.92709 28.3621 17.5364
471 0.383631 8.46205 29.7769 17.2304
472 -0.493562 5.95539 28.3876 19.4817
473 0.393346 6.94603 28.8774 18.9909
474 -0.0404247 8.33447 30.8106 18.3718
475 -0.0475949 7.5444 30.2225 19.4881
476 0.182632 9.53104 32.4871 17.5669
477 -0.0650496 8.97632 32.0763 18.4054
478 -0.141098 7.6391 30.9298 20.7306
479 0.14829 7.09209 30.5094 21.582
480 -0.154934 8.91835 32.7573 19.6754
481 0.242958 8.31074 32.1927 20.847
482 0.144075 9.43999 33.7124 19.7301
483 0.144813 7.13208 34.4239 20.4785
484 -0.532793 8.47956 32.7041 22.1171
485 -0.170525 7.20682 34.7505 21.5194
486 0.248564 7.9818 33.8893 22.415
487 0.123255 6.04178 36.579 21.2431
488 0.130225 7.55011 38.9134 22.428
489 0.124539 4.18086 37.3448 22.5284
490 -0.105745 6.57525 35.927 21.9752
491 -0.16461 8.05785 34.3603 23.7994
492 0.136212 8.64135 33.7967 24.5015
493 -0.302779 7.11993 38.8882 23.4864
494 -0.0155972 6.67339 36.3732 23.3387
495 -0.305143 4.89936 38.15 22.7808
496 0.125682 6.6906 39.9167 23.6979
497 -0.11442 7.40983 35.5316 24.2383
498 0.134804 4.26266 38.8843 23.266
499 0.115013 8.01865 38.7808 24.1106
500 0.138798 5.2755 38.5562 21.802
501 0.0215777 6.09084 37.7117 23.6923
502 0.128656 7.51523 35.9408 25.2196
503 -0.0139182 5.66397 37.6758 25.1668
504 0.125975 4.05365 36.1401 24.8876
505 0.103368 7.10062 39.1525 25.9168
506 -0.116871 4.59732 36.7665 25.5989
507 -0.125192 6.32149 38.4819 26.1952
508 -0.138917 4.20865 36.677 26.9513
509 -0.181003 5.94415 38.3371 27.5811
510 0.145223 3.3608 36.0086 27.2457
511 0.136344 6.53871 38.8926 28.3358
512 0.250602 4.92788 37.4414 27.9588
513 -0.517414 4.43521 37.2646 29.1972
514 0.138642 6.91508 36.484 28.8647
515 0.252289 5.30236 37.0533 30.2197
516 -0.15488 6.69487 36.6988 29.9202
517 0.196308 3.81515 37.4452 31.7407
518 -0.115037 4.83797 37.2122 31.5471
519 -0.0829259 7.65633 36.5046 30.9132
520 0.15619 8.63768 36.1933 30.6427
521 -0.0306944 5.79115 37.0385 32.6299
522 -0.0571145 7.23901 36.7137 32.2941
523 0.415536 5.7177 37.2844 34.1118
524 -0.40455 4.91737 37.9972 34.6098
525 0.374873 8.06899 36.7633 33.5633
526 -0.397967 7.1512 36.9992 34.7642
527 -0.426489 9.24678 36.5243 33.6518
528 0.194978 7.4642 36.6685 36.1963
529 0.255071 9.29806 35.6142 35.8023
530 0.229343 5.67291 37.6215 37.0565
531 -0.118504 8.63054 35.9514 36.6137
532 -0.0686683 6.59405 37.0543 37.2748
533 0.200012 8.9892 35.5364 37.9169
534 -0.0843342 6.89895 36.8153 38.6414
535 0.171613 6.25817 37.1424 39.4535
536 -0.459516 9.88555 33.9266 40.5946
537 -0.113071 8.06369 36.0235 38.914
538 -0.422391 10.1195 34.5796 38.1838
539 0.375814 10.4723 33.8267 39.5479
540 -0.401757 11.7063 34.8692 36.3615
541 0.400167 11.3158 34.2556 37.3128
542 0.169265 8.24444 35.7563 39.9488
543 -0.062404 11.7123 32.9823 39.3303
544 -0.0462431 12.2177 33.1808 37.9006
545 0.164449 12.118 31.9706 41.2799
546 -0.14378 12.4239 32.1533 40.2578
547 -0.0693765 13.4077 32.5047 37.4775
548 0.183607 13.8113 32.5863 36.4914
549 0.234196 13.6416 31.4895 39.7851
550 -0.131057 14.0135 31.5891 38.4264
551 -0.492553 14.4704 30.8507 40.7325
552 0.164021 14.8698 31.0241 38.025
553 0.16892 14.4992 40.1555 6.41629
554 -0.132181 14.4081 39.5625 7.35555
555 0.248763 14.6426 38.1655 7.25283
556 0.132266 15.2968 40.2379 11.9084
557 0.119749 13.6757 41.1877 8.65624
558 0.126397 13.3243 41.8426 11.2303
559 -0.11607 13.9578 40.1342 8.58324
560 -0.152927 14.57 37.3061 8.40755
561 0.131521 14.707 36.2406 8.31871
562 -0.00868105 13.9049 39.2966 9.75437
563 -0.308605 14.3969 39.6929 12.2298
564 -0.103477 14.2466 37.8806 9.67004
565 0.174451 13.9903 40.2334 13.1006
566 -0.3177 12.5925 41.0287 11.0207
567 0.147842 14.7124 38.7434 12.5827
568 0.15474 14.1715 37.2368 10.543
569 0.0165815 13.2798 39.6034 11.065
570 0.122516 12.0167 41.1944 10.099
571 0.122583 11.8224 41.0605 11.8041
572 -0.0179235 12.1688 38.627 11.4234
573 0.142812 11.9135 38.1544 9.30157
574 0.173029 12.066 38.7081 13.6785
575 -0.103847 11.5223 37.9549 10.2776
576 -0.103047 11.6805 38.2774 12.7688
577 -0.134629 10.517 37.0318 10.4922
578 -0.159613 10.6923 37.3021 12.9571
579 0.142187 10.0536 36.5175 9.59859
580 0.157556 10.4348 37.0639 13.9878
581 0.259001 10.0039 36.6555 11.8329
582 -0.525857 9.0881 35.7118 11.9427
583 0.155062 7.96204 33.3714 12.8623
584 0.2566 8.38644 35.523 13.0992
585 -0.13108 7.72595 34.2965 13.4874
586 0.149206 8.50479 37.6268 13.7622
587 -0.148464 8.02537 36.6517 13.8729
588 -0.065173 6.77864 34.0617 14.5345
589 0.166187 6.35134 33.0701 14.7354
590 -0.0385302 7.01654 36.4907 14.9204
591 -0.0531526 6.4211 35.1883 15.3564
592 0.391153 6.44598 37.5514 15.8483
593 -0.46428 6.58192 38.6995 15.5583
594 0.381879 5.41192 35.4013 16.5102
595 -0.447839 5.4702 36.931 16.8749
596 -0.461304 4.76036 34.56 17.0651
597 0.163528 2.92245 36.2464 18.0069
598 0.17658 4.55782 37.7342 17.7641
599 -0.121338 3.32804 37.2387 18.3032
600 0.236161 5.79737 39.4529 17.8419
601 -0.144583 4.8723 39.0542 18.2097
602 -0.0973059 2.5234 38.0237 19.1775
603 0.130384 1.60021 37.637 19.5637
604 0.179662 4.11221 39.931 19.0652
605 -0.11122 2.88001 39.3691 19.4983
606 -0.460713 6.841 41.1257 19.0646
607 -0.466403 4.49613 41.2818 19.6039
608 0.194018 2.17897 39.9511 20.1278
609 0.412096 5.94819 41.7155 19.5779
610 -0.51073 2.95001 41.6667 21.5951
611 0.393823 3.84628 41.9421 20.8948
612 -0.051482 6.13102 42.8724 20.6131
613 -0.0532459 4.87212 43.0308 21.3633
614 0.176308 8.2299 43.4594 20.2344
615 -0.055851 7.3388 43.673 20.8039
616 -0.096796 4.83587 44.1094 22.3094
617 0.187344 3.89277 44.3117 22.8875
618 -0.125094 7.27122 44.5559 21.923
619 0.23281 6.05239 44.7848 22.6646
620 0.204675 8.166 45.136 22.2152
621 0.140673 6.52611 46.2354 26.5144
622 -0.475283 6.11736 45.4707 23.8997
623 -0.143643 6.96573 45.2661 26.1824
624 0.266478 6.79823 44.8146 24.8273
625 0.120736 7.73738 44.8377 28.1552
626 0.140913 10.3027 40.5161 27.9463
627 0.140124 11.0709 42.9975 27.3768
628 -0.108677 7.63214 44.439 27.136
629 -0.147673 7.32528 43.5027 24.5138
630 0.153639 7.12381 43.0228 23.57
631 -0.30617 9.64813 41.0153 27.254
632 -0.00918315 8.19466 43.1522 26.8274
633 -0.304507 10.3525 43.1269 28.192
634 0.112934 8.83741 40.2582 27.0017
635 -0.117562 8.01023 42.6958 25.4524
636 0.128798 10.2463 44.2043 28.2806
637 0.119236 10.1768 41.2368 26.2863
638 0.132575 10.735 42.7929 29.1699
639 0.0178394 9.01125 42.3478 27.8181
640 0.112359 8.45277 41.7645 25.1128
641 0.00114207 8.18318 41.9901 28.9946
642 0.114488 6.56888 40.983 27.7629
643 0.119627 9.41017 43.2155 30.4274
644 -0.116736 6.90243 41.3302 28.7648
645 -0.11458 8.52989 42.6023 30.2802
646 -0.145397 6.0926 41.0645 29.874
647 -0.154424 7.73117 42.2801 31.3779
648 0.148312 5.12226 40.5281 29.7579
649 0.141888 8.00079 42.6951 32.3761
650 0.255559 6.51505 41.5038 31.2048
651 -0.503879 5.78068 41.1945 32.2801
652 0.152779 8.25662 39.8832 32.4514
653 0.260693 6.40889 40.8415 33.4285
654 -0.150949 7.73548 40.1466 33.4089
655 0.181458 4.90033 41.6861 34.7288
656 -0.120391 5.87009 41.2119 34.6887
657 -0.0506174 8.32288 39.6973 34.6212
658 0.211869 9.29099 39.1306 34.592
659 -0.0261334 6.45545 40.7844 35.937
660 -0.0349773 7.72552 39.9828 35.9306
661 0.393794 6.10179 40.9732 37.4132
662 -0.418453 5.1369 41.497 37.8603
663 0.391055 8.31552 39.5961 37.2415
664 -0.419457 7.27115 40.2219 38.2759
665 -0.405128 9.37074 39.0617 37.3336
666 0.189915 7.49632 40.3415 39.6975
667 0.246467 9.28498 39.0466 39.7473
668 0.194187 5.85986 41.7609 40.0919
669 -0.145252 8.54621 39.6191 40.3698
670 -0.112052 6.68447 41.2085 40.5435
671 0.18055 8.73557 39.6676 41.785
672 -0.0937842 6.85718 41.287 41.9279
673 0.131063 6.18911 41.9249 42.5347
674 -0.457382 9.90837 39.8536 44.7522
675 -0.115533 7.90394 40.5097 42.5567
676 -0.442926 9.85186 38.8934 42.4069
677 0.39619 10.4127 39.2136 43.8814
678 -0.458056 11.0758 37.9206 40.501
679 0.396443 11.0532 38.3418 41.6192
680 0.186433 8.0756 40.4759 43.6525
681 -0.0397642 11.8455 38.6592 43.9565
682 -0.0558967 12.2026 38.1512 42.5736
683 0.162392 12.4635 38.7828 46.058
684 -0.154524 12.7291 38.4895 45.051
685 -0.0876271 13.5047 37.5073 42.3414
686 0.132932 13.8027 37.1122 41.3591
687 0.23922 14.027 37.8982 44.8161
688 -0.119941 14.3387 37.4084 43.4719
689 -0.481679 14.9684 37.6438 45.7359
690 0.176892 15.3004 36.8935 43.3434
691 0.158919 15.2833 53.7675 7.5128
692 -0.130717 14.3717 53.2312 7.80846
693 0.239331 13.7047 52.4469 6.76411
694 0.143602 12.7932 52.3987 13.1304
695 0.12305 14.5703 53.7283 9.88608
696 0.135907 10.7737 53.8727 11.1197
697 -0.120439 13.9763 53.2228 9.14542
698 -0.155481 12.5266 51.7139 7.14591
699 0.151908 11.9634 51.2087 6.40056
700 -0.00847938 12.8351 52.3917 9.56006
701 -0.304663 13.0112 52.8477 12.1417
702 -0.0976372 12.1217 51.6527 8.49495
703 0.118641 14.0957 52.7755 12.0765
704 -0.308137 10.7847 52.7595 10.9742
705 0.133454 12.69 53.9161 12.282
706 0.131508 11.3069 51.0236 8.83392
707 0.0184398 12.2752 52.1642 10.9293
708 0.123021 10.2161 52.5286 10.0382
709 0.1454 10.2369 52.401 11.8768
710 -0.000543821 12.2504 50.7268 11.3459
711 0.115373 10.1292 50.3629 10.8082
712 0.109622 14.3206 50.7088 12.2147
713 -0.114864 11.0544 49.9636 11.1705
714 -0.117466 13.4114 50.1256 12.0138
715 -0.146795 10.9223 48.644 11.706
716 -0.132922 13.2624 48.8115 12.5139
717 0.147128 9.95921 48.084 11.6136
718 0.166179 14.037 48.3257 13.0646
719 0.230073 12.0953 48.0008 12.2094
720 -0.482175 12.2063 46.5794 12.2635
721 0.148788 12.0307 44.0225 12.145
722 0.276416 11.3276 45.9676 13.0092
723 -0.122625 11.3215 44.5335 12.7954
724 0.16936 10.4555 47.5941 14.1919
725 -0.153332 10.3669 46.5915 13.8859
726 -0.0935691 10.3073 43.702 13.2969
727 0.122586 10.2872 42.6623 12.9865
728 -0.0320188 9.33489 45.78 14.4283
729 -0.0611734 9.2944 44.2839 14.1616
730 0.393581 8.28291 46.0411 15.5163
731 -0.450798 8.09704 47.1688 15.874
732 0.393074 8.20699 43.6459 14.9716
733 -0.42155 7.50642 44.7557 15.8622
734 -0.459081 7.79597 42.5442 14.8307
735 0.195173 5.59468 42.6246 16.131
736 0.186175 6.23749 44.6224 16.6681
737 -0.107671 5.3639 43.4747 16.7657
738 0.231571 6.48816 46.6546 17.4532
739 -0.131519 5.89424 45.7173 17.4875
740 -0.0700007 4.23646 43.4687 17.6216
741 0.175789 3.58335 42.6135 17.6181
742 0.181755 4.92031 45.6671 18.5657
743 -0.11061 3.99175 44.5792 18.4728
744 -0.41573 7.47911 47.6673 19.5215
745 -0.405753 5.18365 46.4941 19.7499
746 0.183818 3.10264 44.6255 19.0865
747 0.378072 6.32559 47.6882 19.7555
748 -0.453858 3.24876 46.2208 21.1918
749 0.426618 4.10219 46.925 20.7567
750 -0.0348467 5.63104 48.8096 20.4698
751 -0.0268165 4.3056 48.4319 21.062
752 0.164251 6.95727 50.4783 19.9649
753 -0.0637314 6.06392 50.1898 20.4987
754 -0.118455 3.53837 49.4304 21.7227
755 0.180512 2.53893 49.1335 22.114
756 -0.15195 5.28891 51.1605 21.1821
757 0.251356 4.0512 50.7638 21.8071
758 0.157966 5.64655 52.1985 21.1738
759 0.146962 2.81947 53.7638 24.1428
760 -0.506688 3.40597 51.6662 22.573
761 -0.143441 3.79765 53.2957 24.365
762 0.240999 4.21267 52.1889 23.5538
763 0.12733 4.3064 54.574 26.1126
764 0.11969 8.71697 52.2407 26.3673
765 0.13977 7.07307 55.7197 25.9264
766 -0.107174 4.59701 53.7139 25.4867
767 -0.153622 5.54648 51.6454 23.7665
768 0.150109 5.93277 50.7875 23.2109
769 -0.308511 8.01127 52.592 27.2218
770 -0.00879362 5.83448 53.0772 25.7943
771 -0.299328 7.64408 54.7708 25.9574
772 0.123743 8.67152 53.0307 27.9403
773 -0.106077 6.31784 52.0468 24.872
774 0.1233 8.61918 54.9333 26.4939
775 0.123846 7.58077 51.7395 27.75
776 0.147464 7.79723 54.4257 24.9023
777 0.0148646 6.84943 53.6355 26.7581
778 0.121989 7.33978 51.6119 25.0186
779 -0.0111907 6.21644 54.1346 27.995
780 0.121082 4.53858 52.6516 27.9277
781 0.108223 7.39318 55.9663 28.3587
782 -0.119125 4.97156 53.4756 28.4861
783 -0.114699 6.57396 55.3339 28.7279
784 -0.158402 4.27388 53.9028 29.6338
785 -0.147772 5.95868 55.7022 29.95
786 0.131813 3.40079 53.35 29.9335
787 0.146347 6.2745 56.6176 30.4615
788 0.233621 4.92675 54.8648 30.5033
789 -0.512147 4.5152 55.0027 31.8518
790 0.137816 6.41632 52.9856 31.6674
791 0.276253 5.18499 54.4719 32.8303
792 -0.152668 6.14837 53.3185 32.6874
793 0.184083 4.12142 55.6418 34.3139
794 -0.118733 4.84971 54.8579 34.1848
795 -0.0680131 6.69242 52.6809 33.7928
796 0.15361 7.41319 51.9152 33.624
797 -0.0386654 5.34374 54.1611 35.3145
798 -0.0453337 6.33107 53.0046 35.1953
799 0.396549 5.02001 54.2278 36.8146
800 -0.452902 3.97887 54.6841 37.1735