576
 Atoms. Timestep: 0
1 -8.88178e-16 0 0
2 -0.749 1.111 0
2 -0.749 -1.111 0
1 0.839 0 1.292
3 1.448 -0.904 1.292
3 1.448 0.904 1.292
1 -8.88178e-16 0 2.583
2 -0.749 1.111 2.583
2 -0.749 -1.111 2.583
1 0.839 0 3.875
3 1.448 -0.904 3.875
3 1.448 0.904 3.875
1 -8.88178e-16 0 5.166
2 -0.749 1.111 5.166
2 -0.749 -1.111 5.166
1 0.839 0 6.458
3 1.448 -0.904 6.458
3 1.448 0.904 6.458
1 -8.88178e-16 0 7.749
2 -0.749 1.111 7.749
2 -0.749 -1.111 7.749
1 0.839 0 9.041
3 1.448 -0.904 9.041
3 1.448 0.904 9.041
1 -8.88178e-16 0 10.332
2 -0.749 1.111 10.332
2 -0.749 -1.111 10.332
1 0.839 0 11.624
2 1.588 -1.111 11.624
3 1.448 0.904 11.624
1 -8.88178e-16 0 12.916
2 -0.749 1.111 12.916
2 -0.749 -1.111 12.916
1 0.839 0 14.207
3 1.448 -0.904 14.207
3 1.448 0.904 14.207
1 -8.88178e-16 0 15.499
2 -0.749 1.111 15.499
2 -0.749 -1.111 15.499
1 0.839 0 16.79
3 1.448 -0.904 16.79
3 1.448 0.904 16.79
1 -8.88178e-16 0 18.082
2 -0.749 1.111 18.082
2 -0.749 -1.111 18.082
1 0.839 0 19.373
3 1.448 -0.904 19.373
2 1.588 1.111 19.373
1 -8.88178e-16 0 20.665
2 -0.749 1.111 20.665
2 -0.749 -1.111 20.665
1 0.839 0 21.956
3 1.448 -0.904 21.956
3 1.448 0.904 21.956
1 -8.88178e-16 0 23.248
2 -0.749 1.111 23.248
2 -0.749 -1.111 23.248
1 0.839 0 24.54
3 1.448 -0.904 24.54
3 1.448 0.904 24.54
1 -8.88178e-16 0 25.831
2 -0.749 1.111 25.831
2 -0.749 -1.111 25.831
1 0.839 0 27.123
2 1.588 -1.111 27.123
3 1.448 0.904 27.123
1 -8.88178e-16 0 28.414
2 -0.749 1.111 28.414
2 -0.749 -1.111 28.414
1 0.839 0 29.706
3 1.448 -0.904 29.706
3 1.448 0.904 29.706
1 -8.88178e-16 0 30.997
2 -0.749 1.111 30.997
2 -0.749 -1.111 30.997
1 0.839 0 32.289
3 1.448 -0.904 32.289
3 1.448 0.904 32.289
1 -8.88178e-16 0 33.58
2 -0.749 1.111 33.58
2 -0.749 -1.111 33.58
1 0.839 0 34.872
3 1.448 -0.904 34.872
2 1.588 1.111 34.872
1 -8.88178e-16 0 36.163
2 -0.749 1.111 36.163
2 -0.749 -1.111 36.163
1 0.839 0 37.455
3 1.448 -0.904 37.455
3 1.448 0.904 37.455
1 -8.88178e-16 0 38.747
2 -0.749 1.111 38.747
2 -0.749 -1.111 38.747
1 0.839 0 40.038
3 1.448 -0.904 40.038
3 1.448 0.904 40.038
1 -8.88178e-16 0 41.33
2 -0.749 1.111 41.33
2 -0.749 -1.111 41.33
1 0.839 0 42.621
2 1.588 -1.111 42.621
3 1.448 0.904 42.621
1 -8.88178e-16 0 43.913
2 -0.749 1.111 43.913
2 -0.749 -1.111 43.913
1 0.839 0 45.204
3 1.448 -0.904 45.204
3 1.448 0.904 45.204
1 -8.88178e-16 0 46.496
2 -0.749 1.111 46.496
2 -0.749 -1.111 46.496
1 0.839 0 47.787
3 1.448 -0.904 47.787
3 1.448 0.904 47.787
1 -8.88178e-16 0 49.079
2 -0.749 1.111 49.079
2 -0.749 -1.111 49.079
1 0.839 0 50.371
3 1.448 -0.904 50.371
2 1.588 1.111 50.371
1 -8.88178e-16 0 51.662
2 -0.749 1.111 51.662
2 -0.749 -1.111 51.662
1 0.839 0 52.954
3 1.448 -0.904 52.954
3 1.448 0.904 52.954
1 -8.88178e-16 0 54.245
2 -0.749 1.111 54.245
2 -0.749 -1.111 54.245
1 0.839 0 55.537
3 1.448 -0.904 55.537
3 1.448 0.904 55.537
1 -8.88178e-16 0 56.828
2 -0.749 1.111 56.828
2 -0.749 -1.111 56.828
1 0.839 0 58.12
2 1.588 -1.111 58.12
3 1.448 0.904 58.12
1 -8.88178e-16 0 59.411
2 -0.749 1.111 59.411
2 -0.749 -1.111 59.411
1 0.839 0 60.703
3 1.448 -0.904 60.703
3 1.448 0.904 60.703
1 -8.88178e-16 0 61.995
2 -0.749 1.111 61.995
2 -0.749 -1.111 61.995
1 0.839 0 63.286
3 1.448 -0.904 63.286
3 1.448 0.904 63.286
1 -8.88178e-16 0 64.578
2 -0.749 1.111 64.578
2 -0.749 -1.111 64.578
1 0.839 0 65.869
3 1.448 -0.904 65.869
3 1.448 0.904 65.869
1 -8.88178e-16 0 67.161
2 -0.749 1.111 67.161
2 -0.749 -1.111 67.161
1 0.839 0 68.452
3 1.448 -0.904 68.452
3 1.448 0.904 68.452
1 -8.88178e-16 0 69.744
2 -0.749 1.111 69.744
2 -0.749 -1.111 69.744
1 0.839 0 71.035
3 1.448 -0.904 71.035
3 1.448 0.904 71.035
1 -8.88178e-16 0 72.327
2 -0.749 1.111 72.327
2 -0.749 -1.111 72.327
1 0.839 0 73.619
2 1.588 -1.111 73.619
3 1.448 0.904 73.619
1 -8.88178e-16 0 74.91
2 -0.749 1.111 74.91
2 -0.749 -1.111 74.91
1 0.839 0 76.202
3 1.448 -0.904 76.202
3 1.448 0.904 76.202
1 -8.88178e-16 0 77.493
2 -0.749 1.111 77.493
2 -0.749 -1.111 77.493
1 0.839 0 78.785
3 1.448 -0.904 78.785
3 1.448 0.904 78.785
1 -8.88178e-16 0 80.076
2 -0.749 1.111 80.076
2 -0.749 -1.111 80.076
1 0.839 0 81.368
3 1.448 -0.904 81.368
2 1.588 1.111 81.368
1 -8.88178e-16 0 82.659
2 -0.749 1.111 82.659
2 -0.749 -1.111 82.659
1 0.839 0 83.951
3 1.448 -0.904 83.951
3 1.448 0.904 83.951
1 -8.88178e-16 0 85.242
2 -0.749 1.111 85.242
2 -0.749 -1.111 85.242
1 0.839 0 86.534
3 1.448 -0.904 86.534
3 1.448 0.904 86.534
1 -8.88178e-16 0 87.826
2 -0.749 1.111 87.826
2 -0.749 -1.111 87.826
1 0.839 0 89.117
2 1.588 -1.111 89.117
3 1.448 0.904 89.117
1 -8.88178e-16 0 90.409
2 -0.749 1.111 90.409
2 -0.749 -1.111 90.409
1 0.839 0 91.7
3 1.448 -0.904 91.7
3 1.448 0.904 91.7
1 -8.88178e-16 0 92.992
2 -0.749 1.111 92.992
2 -0.749 -1.111 92.992
1 0.839 0 94.283
3 1.448 -0.904 94.283
3 1.448 0.904 94.283
1 -8.88178e-16 0 95.575
2 -0.749 1.111 95.575
2 -0.749 -1.111 95.575
1 0.839 0 96.866
3 1.448 -0.904 96.866
2 1.588 1.111 96.866
1 -8.88178e-16 0 98.158
2 -0.749 1.111 98.158
2 -0.749 -1.111 98.158
1 0.839 0 99.45
3 1.448 -0.904 99.45
3 1.448 0.904 99.45
1 -8.88178e-16 0 100.741
2 -0.749 1.111 100.741
2 -0.749 -1.111 100.741
1 0.839 0 102.033
3 1.448 -0.904 102.033
3 1.448 0.904 102.033
1 -8.88178e-16 0 103.324
2 -0.749 1.111 103.324
2 -0.749 -1.111 103.324
1 0.839 0 104.616
2 1.588 -1.111 104.616
3 1.448 0.904 104.616
1 -8.88178e-16 0 105.907
2 -0.749 1.111 105.907
2 -0.749 -1.111 105.907
1 0.839 0 107.199
3 1.448 -0.904 107.199
3 1.448 0.904 107.199
1 -8.88178e-16 0 108.49
2 -0.749 1.111 108.49
2 -0.749 -1.111 108.49
1 0.839 0 109.782
3 1.448 -0.904 109.782
3 1.448 0.904 109.782
1 -8.88178e-16 0 111.074
2 -0.749 1.111 111.074
2 -0.749 -1.111 111.074
1 0.839 0 112.365
3 1.448 -0.904 112.365
2 1.588 1.111 112.365
1 -8.88178e-16 0 113.657
2 -0.749 1.111 113.657
2 -0.749 -1.111 113.657
1 0.839 0 114.948
3 1.448 -0.904 114.948
3 1.448 0.904 114.948
1 -8.88178e-16 0 116.24
2 -0.749 1.111 116.24
2 -0.749 -1.111 116.24
1 0.839 0 117.531
3 1.448 -0.904 117.531
3 1.448 0.904 117.531
1 -8.88178e-16 0 118.823
2 -0.749 1.111 118.823
2 -0.749 -1.111 118.823
1 0.839 0 120.114
2 1.588 -1.111 120.114
3 1.448 0.904 120.114
1 -8.88178e-16 0 121.406
2 -0.749 1.111 121.406
2 -0.749 -1.111 121.406
1 0.839 0 122.698
3 1.448 -0.904 122.698
3 1.448 0.904 122.698
1 -8.88178e-16 0 123.994
2 -0.749 1.111 123.994
2 -0.749 -1.111 123.994
1 0.839 0 125.286
3 1.448 -0.904 125.286
3 1.448 0.904 125.286
1 -8.88178e-16 0 126.577
2 -0.749 1.111 126.577
2 -0.749 -1.111 126.577
1 0.839 0 127.869
3 1.448 -0.904 127.869
3 1.448 0.904 127.869
1 -8.88178e-16 0 129.16
2 -0.749 1.111 129.16
2 -0.749 -1.111 129.16
1 0.839 0 130.452
3 1.448 -0.904 130.452
3 1.448 0.904 130.452
1 -8.88178e-16 0 131.743
2 -0.749 1.111 131.743
2 -0.749 -1.111 131.743
1 0.839 0 133.035
3 1.448 -0.904 133.035
3 1.448 0.904 133.035
1 -8.88178e-16 0 134.326
2 -0.749 1.111 134.326
2 -0.749 -1.111 134.326
1 0.839 0 135.618
2 1.588 -1.111 135.618
3 1.448 0.904 135.618
1 -8.88178e-16 0 136.91
2 -0.749 1.111 136.91
2 -0.749 -1.111 136.91
1 0.839 0 138.201
3 1.448 -0.904 138.201
3 1.448 0.904 138.201
1 -8.88178e-16 0 139.493
2 -0.749 1.111 139.493
2 -0.749 -1.111 139.493
1 0.839 0 140.784
3 1.448 -0.904 140.784
3 1.448 0.904 140.784
1 -8.88178e-16 0 142.076
2 -0.749 1.111 142.076
2 -0.749 -1.111 142.076
1 0.839 0 143.367
3 1.448 -0.904 143.367
2 1.588 1.111 143.367
1 -8.88178e-16 0 144.659
2 -0.749 1.111 144.659
2 -0.749 -1.111 144.659
1 0.839 0 145.95
3 1.448 -0.904 145.95
3 1.448 0.904 145.95
1 -8.88178e-16 0 147.242
2 -0.749 1.111 147.242
2 -0.749 -1.111 147.242
1 0.839 0 148.534
3 1.448 -0.904 148.534
3 1.448 0.904 148.534
1 -8.88178e-16 0 149.825
2 -0.749 1.111 149.825
2 -0.749 -1.111 149.825
1 0.839 0 151.117
2 1.588 -1.111 151.117
3 1.448 0.904 151.117
1 -8.88178e-16 0 152.408
2 -0.749 1.111 152.408
2 -0.749 -1.111 152.408
1 0.839 0 153.7
3 1.448 -0.904 153.7
3 1.448 0.904 153.7
1 -8.88178e-16 0 154.991
2 -0.749 1.111 154.991
2 -0.749 -1.111 154.991
1 0.839 0 156.283
3 1.448 -0.904 156.283
3 1.448 0.904 156.283
1 -8.88178e-16 0 157.574
2 -0.749 1.111 157.574
2 -0.749 -1.111 157.574
1 0.839 0 158.866
3 1.448 -0.904 158.866
2 1.588 1.111 158.866
1 -8.88178e-16 0 160.157
2 -0.749 1.111 160.157
2 -0.749 -1.111 160.157
1 0.839 0 161.449
3 1.448 -0.904 161.449
3 1.448 0.904 161.449
1 -8.88178e-16 0 162.741
2 -0.749 1.111 162.741
2 -0.749 -1.111 162.741
1 0.839 0 164.032
3 1.448 -0.904 164.032
3 1.448 0.904 164.032
1 -8.88178e-16 0 165.324
2 -0.749 1.111 165.324
2 -0.749 -1.111 165.324
1 0.839 0 166.615
2 1.588 -1.111 166.615
3 1.448 0.904 166.615
1 -8.88178e-16 0 167.907
2 -0.749 1.111 167.907
2 -0.749 -1.111 167.907
1 0.839 0 169.198
3 1.448 -0.904 169.198
3 1.448 0.904 169.198
1 -8.88178e-16 0 170.49
2 -0.749 1.111 170.49
2 -0.749 -1.111 170.49
1 0.839 0 171.781
3 1.448 -0.904 171.781
3 1.448 0.904 171.781
1 -8.88178e-16 0 173.073
2 -0.749 1.111 173.073
2 -0.749 -1.111 173.073
1 0.839 0 174.365
3 1.448 -0.904 174.365
2 1.588 1.111 174.365
1 -8.88178e-16 0 175.656
2 -0.749 1.111 175.656
2 -0.749 -1.111 175.656
1 0.839 0 176.948
3 1.448 -0.904 176.948
3 1.448 0.904 176.948
1 -8.88178e-16 0 178.239
2 -0.749 1.111 178.239
2 -0.749 -1.111 178.239
1 0.839 0 179.531
3 1.448 -0.904 179.531
3 1.448 0.904 179.531
1 -8.88178e-16 0 180.822
2 -0.749 1.111 180.822
2 -0.749 -1.111 180.822
1 0.839 0 182.114
2 1.588 -1.111 182.114
3 1.448 0.904 182.114
1 -8.88178e-16 0 183.405
2 -0.749 1.111 183.405
2 -0.749 -1.111 183.405
1 0.839 0 184.697
3 1.448 -0.904 184.697
3 1.448 0.904 184.697
1 -8.88178e-16 0 185.989
2 -0.749 1.111 185.989
2 -0.749 -1.111 185.989
1 0.839 0 187.28
3 1.448 -0.904 187.28
3 1.448 0.904 187.28
1 -8.88178e-16 0 188.572
2 -0.749 1.111 188.572
2 -0.749 -1.111 188.572
1 0.839 0 189.863
3 1.448 -0.904 189.863
3 1.448 0.904 189.863
1 -8.88178e-16 0 191.155
2 -0.749 1.111 191.155
2 -0.749 -1.111 191.155
1 0.839 0 192.446
3 1.448 -0.904 192.446
3 1.448 0.904 192.446
1 -8.88178e-16 0 193.738
2 -0.749 1.111 193.738
2 -0.749 -1.111 193.738
1 0.839 0 195.029
3 1.448 -0.904 195.029
3 1.448 0.904 195.029
1 -8.88178e-16 0 196.321
2 -0.749 1.111 196.321
2 -0.749 -1.111 196.321
1 0.839 0 197.613
2 1.588 -1.111 197.613
3 1.448 0.904 197.613
1 -8.88178e-16 0 198.904
2 -0.749 1.111 198.904
2 -0.749 -1.111 198.904
1 0.839 0 200.196
3 1.448 -0.904 200.196
3 1.448 0.904 200.196
1 -8.88178e-16 0 201.487
2 -0.749 1.111 201.487
2 -0.749 -1.111 201.487
1 0.839 0 202.779
3 1.448 -0.904 202.779
3 1.448 0.904 202.779
1 -8.88178e-16 0 204.07
2 -0.749 1.111 204.07
2 -0.749 -1.111 204.07
1 0.839 0 205.362
3 1.448 -0.904 205.362
2 1.588 1.111 205.362
1 -8.88178e-16 0 206.653
2 -0.749 1.111 206.653
2 -0.749 -1.111 206.653
1 0.839 0 207.945
3 1.448 -0.904 207.945
3 1.448 0.904 207.945
1 -8.88178e-16 0 209.236
2 -0.749 1.111 209.236
2 -0.749 -1.111 209.236
1 0.839 0 210.528
3 1.448 -0.904 210.528
3 1.448 0.904 210.528
1 -8.88178e-16 0 211.82
2 -0.749 1.111 211.82
2 -0.749 -1.111 211.82
1 0.839 0 213.111
2 1.588 -1.111 213.111
3 1.448 0.904 213.111
1 -8.88178e-16 0 214.403
2 -0.749 1.111 214.403
2 -0.749 -1.111 214.403
1 0.839 0 215.694
3 1.448 -0.904 215.694
3 1.448 0.904 215.694
1 -8.88178e-16 0 216.986
2 -0.749 1.111 216.986
2 -0.749 -1.111 216.986
1 0.839 0 218.277
3 1.448 -0.904 218.277
3 1.448 0.904 218.277
1 -8.88178e-16 0 219.569
2 -0.749 1.111 219.569
2 -0.749 -1.111 219.569
1 0.839 0 220.86
3 1.448 -0.904 220.86
2 1.588 1.111 220.86
1 -8.88178e-16 0 222.152
2 -0.749 1.111 222.152
2 -0.749 -1.111 222.152
1 0.839 0 223.444
3 1.448 -0.904 223.444
3 1.448 0.904 223.444
1 -8.88178e-16 0 224.735
2 -0.749 1.111 224.735
2 -0.749 -1.111 224.735
1 0.839 0 226.027
3 1.448 -0.904 226.027
3 1.448 0.904 226.027
1 -8.88178e-16 0 227.318
2 -0.749 1.111 227.318
2 -0.749 -1.111 227.318
1 0.839 0 228.61
2 1.588 -1.111 228.61
3 1.448 0.904 228.61
1 -8.88178e-16 0 229.901
2 -0.749 1.111 229.901
2 -0.749 -1.111 229.901
1 0.839 0 231.193
3 1.448 -0.904 231.193
3 1.448 0.904 231.193
1 -8.88178e-16 0 232.484
2 -0.749 1.111 232.484
2 -0.749 -1.111 232.484
1 0.839 0 233.776
3 1.448 -0.904 233.776
3 1.448 0.904 233.776
1 -8.88178e-16 0 235.068
2 -0.749 1.111 235.068
2 -0.749 -1.111 235.068
1 0.839 0 236.359
3 1.448 -0.904 236.359
2 1.588 1.111 236.359
1 -8.88178e-16 0 237.651
2 -0.749 1.111 237.651
2 -0.749 -1.111 237.651
1 0.839 0 238.942
3 1.448 -0.904 238.942
3 1.448 0.904 238.942
1 -8.88178e-16 0 240.234
2 -0.749 1.111 240.234
2 -0.749 -1.111 240.234
1 0.839 0 241.525
3 1.448 -0.904 241.525
3 1.448 0.904 241.525
1 -8.88178e-16 0 242.817
2 -0.749 1.111 242.817
2 -0.749 -1.111 242.817
1 0.839 0 244.108
2 1.588 -1.111 244.108
3 1.448 0.904 244.108
1 -8.88178e-16 0 245.4
2 -0.749 1.111 245.4
2 -0.749 -1.111 245.4
1 0.839 0 246.692
3 1.448 -0.904 246.692
3 1.448 0.904 246.692
576
 Atoms. Timestep: 100
1 0.07573 0.0195331 -0.860783
2 -0.852796 1.13557 -0.826237
2 -0.836732 -1.12683 -0.815698
1 0.987251 0.0147736 0.353429
3 1.60667 -0.87701 0.328983
3 1.61459 0.896963 0.361779
1 0.0882854 0.00211264 1.71323
2 -0.831523 1.1281 1.73294
2 -0.82506 -1.12395 1.72275
1 0.946942 -0.00139921 3.01369
3 1.56096 -0.893308 3.01117
3 1.56208 0.890213 3.01137
1 0.0914887 0.00251211 4.31547
2 -0.831937 1.12783 4.28831
2 -0.824529 -1.12337 4.30045
1 0.987683 0.0162054 5.67734
3 1.61054 -0.873805 5.69079
3 1.61699 0.896181 5.65698
1 0.0821104 0.02171 6.88789
2 -0.855512 1.1346 6.8353
2 -0.832868 -1.12311 6.83378
1 0.985837 -0.00467439 8.2133
3 1.63912 -0.892693 8.06082
3 1.55991 0.932627 8.24214
1 0.0247287 -0.00979377 9.4318
2 -0.735686 1.14025 9.65095
2 -0.948647 -1.13755 9.47666
1 0.705276 -0.143656 10.8307
2 1.84026 -1.10124 10.8449
3 0.989114 0.886525 10.8323
1 0.0417331 -0.0100409 12.1792
2 -0.71804 1.13287 11.965
2 -0.941476 -1.14495 12.0922
1 1.03586 -0.00705779 13.4827
3 1.67417 -0.900858 13.5614
3 1.63233 0.925309 13.467
1 0.0873571 -0.00107324 14.7096
2 -0.848729 1.11364 14.6996
2 -0.852262 -1.11456 14.7166
1 1.03439 0.00621834 15.9492
3 1.61821 -0.937914 15.9542
3 1.67641 0.905091 15.8432
1 0.0402274 0.0137535 17.2459
2 -0.950731 1.13776 17.3401
2 -0.719955 -1.12172 17.4711
1 0.681193 0.133251 18.6278
3 0.99508 -0.895153 18.6306
2 1.83013 1.09471 18.6327
1 0.0446738 0.012379 20.0073
2 -0.947602 1.14122 19.9099
2 -0.716033 -1.12224 19.7787
1 1.02969 0.00909435 21.2916
3 1.61617 -0.934516 21.2791
3 1.67665 0.908926 21.3845
1 0.0802004 -6.8785e-06 22.528
2 -0.851815 1.11256 22.5371
2 -0.851779 -1.11254 22.5197
1 1.03012 -0.00909073 23.7635
3 1.67735 -0.909306 23.6707
3 1.61627 0.934896 23.7761
1 0.0439056 -0.0121148 25.0483
2 -0.716506 1.12229 25.2775
2 -0.948149 -1.14154 25.1466
1 0.681723 -0.131747 26.429
2 1.82923 -1.09447 26.4237
3 0.995035 0.89643 26.4283
1 0.0418396 -0.0141634 27.8123
2 -0.720071 1.12183 27.5836
2 -0.951693 -1.13834 27.7146
1 1.03116 -0.00789079 29.0953
3 1.67369 -0.909919 29.2013
3 1.61513 0.940089 29.0856
1 0.0798849 0.000401188 30.3331
2 -0.852384 1.11217 30.3286
2 -0.850815 -1.11145 30.3439
1 1.02964 0.00936717 31.5681
3 1.61634 -0.934699 31.5845
3 1.67714 0.909317 31.4793
1 0.0441325 0.0121291 32.8532
2 -0.948944 1.14149 32.953
2 -0.717004 -1.1221 33.0834
1 0.681908 0.130912 34.2345
3 0.995573 -0.897285 34.2352
2 1.82899 1.09443 34.2298
1 0.0424179 0.0141432 35.6182
2 -0.952003 1.13852 35.5194
2 -0.720155 -1.12172 35.389
1 1.03047 0.00842835 36.9014
3 1.61486 -0.939203 36.8879
3 1.67284 0.910097 37.0056
1 0.0798435 6.6498e-05 38.139
2 -0.851169 1.11089 38.1454
2 -0.85116 -1.1107 38.1317
1 1.03045 -0.00808283 39.3749
3 1.6731 -0.909543 39.2715
3 1.61545 0.93925 39.388
1 0.0413365 -0.0146105 40.6608
2 -0.719544 1.12179 40.8901
2 -0.952079 -1.1384 40.7586
1 0.681649 -0.132658 42.044
2 1.83023 -1.09487 42.0498
3 0.995522 0.89537 42.0424
1 0.0443326 -0.0110936 43.4235
2 -0.71606 1.1232 43.197
2 -0.946075 -1.14138 43.3296
1 1.03365 -0.00744828 44.7052
3 1.67943 -0.904399 44.8062
3 1.6144 0.935365 44.7051
1 0.0855033 -0.00100726 45.9534
2 -0.855712 1.11856 45.9505
2 -0.850786 -1.11681 45.9723
1 1.02915 0.00739988 47.1704
3 1.62468 -0.915047 47.1951
3 1.67807 0.893082 47.1007
1 0.033424 0.00868983 48.4759
2 -0.940625 1.1446 48.5684
2 -0.716764 -1.12717 48.6961
1 0.687279 0.135974 49.8386
3 1.03073 -0.900457 49.7883
2 1.84253 1.1032 49.8122
1 0.029567 0.0196116 51.2169
2 -0.960772 1.12963 51.127
2 -0.735695 -1.12143 50.9964
1 1.03252 0.00350733 52.512
3 1.62394 -0.933215 52.5186
3 1.66125 0.897294 52.6553
1 0.0904308 -0.00245077 53.7547
2 -0.84463 1.11286 53.7721
2 -0.850939 -1.11461 53.7564
1 1.03568 -0.00800338 54.988
3 1.67162 -0.898376 54.9172
3 1.63655 0.919075 55.0123
1 0.0457294 -0.0100383 56.2955
2 -0.719055 1.13427 56.5042
2 -0.939962 -1.14559 56.3793
1 0.71354 -0.145704 57.635
2 1.84504 -1.10367 57.6194
3 0.998985 0.883974 57.6421
1 0.018637 -0.0105954 59.0348
2 -0.740852 1.14154 58.822
2 -0.953781 -1.1362 58.9964
1 0.987274 -0.00412402 60.2628
3 1.63721 -0.884694 60.4257
3 1.56338 0.931336 60.2385
1 0.0850246 0.0225661 61.5799
2 -0.856346 1.13445 61.6381
2 -0.833098 -1.12298 61.6389
1 0.988073 0.0162735 62.7937
3 1.61104 -0.873183 62.7814
3 1.61683 0.896091 62.8149
1 0.0908135 0.00250508 64.1553
2 -0.83258 1.12796 64.1827
2 -0.825033 -1.12336 64.1704
1 0.947295 -0.0014222 65.457
3 1.56115 -0.893399 65.4591
3 1.56243 0.89029 65.4589
1 0.0882758 0.0020638 66.7561
2 -0.831988 1.1281 66.736
2 -0.825397 -1.12394 66.7463
1 0.988123 0.0149 68.116
3 1.60791 -0.877085 68.1399
3 1.61572 0.897632 68.1067
1 0.0752154 0.0193218 69.3269
2 -0.853609 1.13555 69.2911
2 -0.836532 -1.12626 69.282
1 0.985868 -0.00660833 70.6557
3 1.64501 -0.90607 70.542
3 1.56429 0.923971 70.6957
1 0.036123 -0.00659252 71.8654
2 -0.719319 1.13901 72.0925
2 -0.936379 -1.14694 71.9164
1 0.69226 -0.135522 73.2548
2 1.8338 -1.09644 73.2374
3 0.988992 0.896267 73.2299
1 0.0374857 -0.0167244 74.6275
2 -0.722365 1.12931 74.4036
2 -0.949404 -1.13701 74.533
1 1.03718 -0.00468222 75.9146
3 1.67001 -0.905704 76.0394
3 1.62347 0.943203 75.9142
1 0.0836393 5.93735e-05 77.1533
2 -0.850568 1.11193 77.1549
2 -0.847054 -1.11032 77.1683
1 1.02921 0.00928273 78.3857
3 1.61876 -0.932015 78.4074
3 1.67759 0.907201 78.3046
1 0.0437756 0.0121099 79.6835
2 -0.949035 1.14151 79.7823
2 -0.716905 -1.12203 79.9121
1 0.682147 0.131973 81.0648
3 0.995715 -0.896812 81.0633
2 1.83002 1.09476 81.0591
1 0.0432295 0.0143397 82.4472
2 -0.952035 1.13826 82.349
2 -0.720606 -1.122 82.2187
1 1.02975 0.00829072 83.7312
3 1.61447 -0.939396 83.7174
3 1.67223 0.909938 83.8356
1 0.0788281 -5.35279e-05 84.9687
2 -0.851225 1.11055 84.9758
2 -0.851321 -1.11072 84.9621
1 1.02989 -0.00851692 86.2069
3 1.67194 -0.910283 86.1027
3 1.61434 0.939078 86.2208
1 0.0431251 -0.0141944 87.4888
2 -0.720154 1.12181 87.718
2 -0.951813 -1.13846 87.5877
1 0.681952 -0.131347 88.8715
2 1.8294 -1.09459 88.8768
3 0.996343 0.897336 88.8718
1 0.045148 -0.0121332 90.2543
2 -0.7168 1.12207 90.0246
2 -0.949181 -1.14164 90.1542
1 1.03025 -0.00963616 91.5418
3 1.67646 -0.908288 91.6257
3 1.62014 0.931523 91.5203
1 0.0831964 -0.00164106 92.7821
2 -0.847079 1.1105 92.7649
2 -0.850807 -1.11174 92.7778
1 1.02923 0.00516382 94.0224
3 1.62043 -0.935976 94.0205
3 1.6573 0.902932 93.8774
1 0.0312645 0.0200062 95.3039
2 -0.962176 1.13013 95.3972
2 -0.736286 -1.12155 95.5276
1 0.687695 0.134342 96.6835
3 1.03014 -0.902163 96.7323
2 1.8417 1.10304 96.7109
1 0.0327204 0.00825366 98.0477
2 -0.94099 1.14506 97.9541
2 -0.716787 -1.12706 97.8265
1 1.02962 0.00740156 99.3527
3 1.62492 -0.915245 99.3281
3 1.67878 0.893222 99.4226
1 0.0854291 -0.00101395 100.569
2 -0.855813 1.11866 100.572
2 -0.85085 -1.1169 100.55
1 1.0337 -0.00744813 101.817
3 1.67946 -0.904396 101.716
3 1.61443 0.935412 101.818
1 0.0443908 -0.0111008 103.099
2 -0.716069 1.12321 103.325
2 -0.946082 -1.14137 103.192
1 0.68166 -0.132654 104.478
2 1.83023 -1.09487 104.472
3 0.995514 0.895387 104.48
1 0.0412667 -0.0146053 105.861
2 -0.719514 1.12178 105.632
2 -0.952062 -1.13841 105.763
1 1.03035 -0.00808198 107.148
3 1.67303 -0.909543 107.251
3 1.61536 0.939243 107.135
1 0.0795632 8.15122e-05 108.383
2 -0.851133 1.11081 108.377
2 -0.851109 -1.1106 108.39
1 1.02999 0.0084662 109.622
3 1.61445 -0.938931 109.636
3 1.672 0.909875 109.518
1 0.0438539 0.0142084 110.905
2 -0.951472 1.13832 111.003
2 -0.720131 -1.12191 111.133
1 0.681785 0.131928 112.287
3 0.996123 -0.896712 112.287
2 1.82975 1.09458 112.292
1 0.0436551 0.0122267 113.669
2 -0.949221 1.14133 113.57
2 -0.716924 -1.12182 113.44
1 1.02923 0.00925977 114.967
3 1.61903 -0.931841 114.945
3 1.67739 0.907103 115.048
1 0.0842782 0.000199651 116.201
2 -0.85021 1.11186 116.198
2 -0.846297 -1.11011 116.185
1 1.03678 -0.00392963 117.441
3 1.66672 -0.904592 117.311
3 1.62507 0.941742 117.439
1 0.0364562 -0.0179919 118.728
2 -0.724908 1.12973 118.951
2 -0.950803 -1.1353 118.822
1 0.69315 -0.135799 120.099
2 1.83598 -1.09715 120.122
3 0.997121 0.897316 120.133
1 0.0343275 -0.00710757 121.488
2 -0.719647 1.13927 121.263
2 -0.937238 -1.14779 121.44
1 0.984504 -0.00676149 122.701
3 1.64634 -0.902661 122.817
3 1.56584 0.920838 122.661
1 0.0758195 0.0195334 124.024
2 -0.852765 1.13558 124.059
2 -0.836746 -1.12687 124.069
1 0.987303 0.0147733 125.238
3 1.6067 -0.877013 125.214
3 1.61463 0.896962 125.247
1 0.0882723 0.00213541 126.598
2 -0.831514 1.1281 126.618
2 -0.825053 -1.12395 126.608
1 0.946951 -0.00142159 127.899
3 1.56099 -0.893312 127.896
3 1.56205 0.890229 127.896
1 0.0914763 0.00251468 129.2
2 -0.831941 1.12782 129.173
2 -0.82452 -1.12337 129.185
1 0.987695 0.0162145 130.562
3 1.61057 -0.873773 130.576
3 1.61689 0.89628 130.542
1 0.0822412 0.0217326 131.773
2 -0.855526 1.13458 131.72
2 -0.832841 -1.12307 131.719
1 0.985782 -0.00458879 133.098
3 1.6388 -0.892272 132.945
3 1.56023 0.932639 133.127
1 0.0243744 -0.00985626 134.317
2 -0.735978 1.14029 134.536
2 -0.948825 -1.13739 134.362
1 0.7057 -0.143661 135.716
2 1.84049 -1.10141 135.73
3 0.989703 0.886481 135.717
1 0.0417829 -0.00999501 137.064
2 -0.718071 1.13286 136.85
2 -0.941409 -1.145 136.977
1 1.03577 -0.00710593 138.368
3 1.67405 -0.900713 138.446
3 1.63244 0.925003 138.352
1 0.0874063 -0.00111399 139.594
2 -0.84862 1.1136 139.584
2 -0.852325 -1.1146 139.601
1 1.0344 0.00615969 140.834
3 1.61811 -0.93804 140.839
3 1.67625 0.905088 140.728
1 0.0401328 0.0138314 142.131
2 -0.950868 1.13759 142.225
2 -0.720165 -1.1217 142.356
1 0.681278 0.133284 143.513
3 0.99513 -0.895054 143.516
2 1.83024 1.09476 143.518
1 0.0446495 0.0123138 144.892
2 -0.947523 1.14132 144.795
2 -0.715975 -1.12227 144.664
1 1.02962 0.00913837 146.177
3 1.61626 -0.934184 146.164
3 1.67675 0.908722 146.269
1 0.080215 2.61757e-05 147.413
2 -0.851877 1.1126 147.422
2 -0.851708 -1.1125 147.404
1 1.03017 -0.0089979 148.649
3 1.67735 -0.909269 148.555
3 1.61602 0.935273 148.661
1 0.0439184 -0.0121776 149.933
2 -0.716572 1.12224 150.162
2 -0.948181 -1.14143 150.031
1 0.681658 -0.131759 151.314
2 1.82917 -1.09444 151.309
3 0.994937 0.896371 151.314
1 0.0419567 -0.0140282 152.697
2 -0.719863 1.12182 152.469
2 -0.9515 -1.13848 152.6
1 1.03111 -0.00790095 153.98
3 1.67399 -0.910082 154.085
3 1.61526 0.939771 153.971
1 0.0798392 0.000451506 155.218
2 -0.852423 1.11226 155.214
2 -0.850831 -1.11156 155.229
1 1.02959 0.00938664 156.453
3 1.6164 -0.934457 156.469
3 1.67713 0.909128 156.365
1 0.044237 0.011998 157.738
2 -0.948782 1.14159 157.838
2 -0.716914 -1.12215 157.968
1 0.681949 0.13099 159.119
3 0.995201 -0.897572 159.119
2 1.82906 1.09448 159.114
1 0.0422315 0.0142284 160.503
2 -0.952179 1.13839 160.404
2 -0.720333 -1.12169 160.274
1 1.03047 0.00839366 161.786
3 1.61491 -0.939296 161.773
3 1.67266 0.91012 161.891
1 0.079872 6.32465e-05 163.024
2 -0.851092 1.11081 163.03
2 -0.851085 -1.11063 163.017
1 1.03046 -0.00805721 164.26
3 1.67292 -0.909562 164.156
3 1.6155 0.939293 164.273
1 0.0411982 -0.0146853 165.546
2 -0.719724 1.12178 165.775
2 -0.952242 -1.13827 165.644
1 0.6817 -0.132682 166.929
2 1.83029 -1.09491 166.935
3 0.995646 0.895391 166.928
1 0.0443203 -0.0110236 168.308
2 -0.716013 1.12322 168.082
2 -0.945983 -1.14148 168.215
1 1.03362 -0.0074473 169.59
3 1.67942 -0.904326 169.691
3 1.61445 0.935233 169.59
1 0.085448 -0.000999097 170.838
2 -0.855672 1.11859 170.835
2 -0.850831 -1.11682 170.857
1 1.02908 0.00738764 172.056
3 1.62455 -0.914992 172.081
3 1.67775 0.892701 171.986
1 0.0336832 0.00857301 173.361
2 -0.940536 1.14457 173.453
2 -0.716733 -1.12721 173.581
1 0.686913 0.136278 174.724
3 1.03054 -0.900785 174.673
2 1.84249 1.10308 174.697
1 0.0299164 0.019499 176.102
2 -0.960624 1.12968 176.012
2 -0.735464 -1.12141 175.881
1 1.03245 0.00352007 177.396
3 1.62349 -0.932966 177.403
3 1.66085 0.896878 177.539
1 0.0902015 -0.00242302 178.64
2 -0.844571 1.11284 178.657
2 -0.850975 -1.11464 178.641
1 1.03566 -0.00801259 179.873
3 1.67156 -0.898174 179.802
3 1.63671 0.918975 179.898
1 0.0459127 -0.0100809 181.18
2 -0.719241 1.13454 181.389
2 -0.939692 -1.14566 181.264
1 0.714363 -0.145975 182.519
2 1.84549 -1.10397 182.503
3 0.999852 0.884013 182.526
1 0.0177127 -0.0106366 183.919
2 -0.741648 1.14173 183.707
2 -0.954524 -1.13616 183.881
1 0.98784 -0.00407081 185.149
3 1.6378 -0.884013 185.314
3 1.564 0.931576 185.126
1 0.085432 0.022675 186.465
2 -0.856368 1.1345 186.523
2 -0.833068 -1.123 186.524
1 0.988186 0.0162765 187.679
3 1.61116 -0.873134 187.667
3 1.61694 0.896045 187.7
1 0.090851 0.00251702 189.04
2 -0.832598 1.12797 189.068
2 -0.825042 -1.12336 189.055
1 0.947291 -0.0014252 190.342
3 1.56135 -0.89347 190.344
3 1.56243 0.890275 190.344
1 0.0882961 0.00207402 191.641
2 -0.832005 1.1281 191.621
2 -0.82541 -1.12393 191.631
1 0.988091 0.0149021 193.001
3 1.60788 -0.877087 193.025
3 1.61566 0.897584 192.991
1 0.0751529 0.0193318 194.212
2 -0.853621 1.13553 194.176
2 -0.836511 -1.12623 194.167
1 0.985883 -0.00661951 195.541
3 1.64502 -0.906162 195.427
3 1.56418 0.924127 195.581
1 0.0361732 -0.00661452 196.75
2 -0.719319 1.13898 196.977
2 -0.93634 -1.14688 196.801
1 0.69216 -0.135551 198.14
2 1.83373 -1.09641 198.123
3 0.988714 0.89623 198.115
1 0.0375538 -0.0166438 199.513
2 -0.722245 1.12931 199.289
2 -0.949265 -1.13707 199.418
1 1.03715 -0.00465748 200.8
3 1.6702 -0.905584 200.924
3 1.62328 0.943289 200.799
1 0.0836438 7.58155e-05 202.038
2 -0.850672 1.11204 202.04
2 -0.847085 -1.11039 202.054
1 1.0292 0.00933948 203.271
3 1.61896 -0.931636 203.292
3 1.67762 0.906906 203.19
1 0.0439273 0.0120349 204.568
2 -0.948771 1.14169 204.667
2 -0.716777 -1.12213 204.797
1 0.682079 0.131968 205.95
3 0.995931 -0.896893 205.948
2 1.83009 1.09483 205.943
1 0.043081 0.0144615 207.332
2 -0.952248 1.13799 207.234
2 -0.720885 -1.12197 207.104
1 1.02966 0.00821172 208.616
3 1.61446 -0.939576 208.602
3 1.67183 0.909917 208.721
1 0.0787931 -7.00592e-05 209.854
2 -0.851073 1.11044 209.861
2 -0.85121 -1.11057 209.847
1 1.02985 -0.00848429 211.092
3 1.6717 -0.910329 210.987
3 1.61443 0.939156 211.106
1 0.0430136 -0.0142751 212.374
2 -0.720337 1.12179 212.603
2 -0.951962 -1.13834 212.473
1 0.682023 -0.131397 213.757
2 1.82947 -1.09464 213.762
3 0.995971 0.897644 213.758
1 0.045215 -0.0120084 215.139
2 -0.71674 1.12209 214.91
2 -0.949112 -1.14176 215.039
1 1.03004 -0.00964638 216.427
3 1.67645 -0.908176 216.51
3 1.62015 0.931283 216.405
1 0.0831132 -0.00164216 217.667
2 -0.847065 1.11053 217.65
2 -0.850856 -1.11175 217.662
1 1.0293 0.00515662 218.907
3 1.62017 -0.936154 218.906
3 1.65751 0.902762 218.763
1 0.031499 0.0199575 220.189
2 -0.961947 1.13018 220.282
2 -0.736014 -1.12153 220.412
1 0.68739 0.134372 221.568
3 1.02956 -0.902157 221.617
2 1.84152 1.10291 221.596
1 0.0327526 0.00821143 222.933
2 -0.94099 1.14502 222.839
2 -0.716722 -1.127 222.711
1 1.02972 0.0074015 224.238
3 1.62494 -0.915328 224.214
3 1.67904 0.893111 224.308
1 0.0855058 -0.000991097 225.454
2 -0.855759 1.11869 225.457
2 -0.850951 -1.11695 225.435
1 1.03369 -0.00745094 226.702
3 1.67953 -0.904327 226.602
3 1.61455 0.935209 226.703
1 0.0443402 -0.011008 227.984
2 -0.715996 1.12323 228.21
2 -0.945987 -1.14152 228.077
1 0.681749 -0.132631 229.363
2 1.83029 -1.09493 229.357
3 0.995663 0.895398 229.364
1 0.041109 -0.0147407 230.746
2 -0.719735 1.12177 230.517
2 -0.952257 -1.13824 230.648
1 1.03037 -0.0080402 232.032
3 1.67271 -0.909465 232.137
3 1.61537 0.939397 232.019
1 0.0796107 6.69825e-05 233.268
2 -0.851058 1.11071 233.262
2 -0.85104 -1.11052 233.275
1 1.03 0.00842333 234.507
3 1.61454 -0.939001 234.521
3 1.6718 0.909907 234.402
1 0.0436968 0.0143081 235.79
2 -0.951642 1.13819 235.888
2 -0.720325 -1.12189 236.018
1 0.681793 0.131988 237.172
3 0.995752 -0.897014 237.173
2 1.82981 1.09464 237.177
1 0.0437507 0.012102 238.554
2 -0.949096 1.14144 238.455
2 -0.716845 -1.12186 238.325
1 1.02912 0.00929922 239.853
3 1.61904 -0.931593 239.83
3 1.67737 0.906948 239.933
1 0.0842343 0.000204978 241.086
2 -0.850287 1.11192 241.083
2 -0.846301 -1.11015 241.07
1 1.0368 -0.00393686 242.326
3 1.66694 -0.904612 242.196
3 1.62486 0.941926 242.324
1 0.0365613 -0.01792 243.613
2 -0.724733 1.12971 243.836
2 -0.950639 -1.13536 243.706
1 0.693014 -0.135797 244.984
2 1.83584 -1.09708 245.007
3 0.99672 0.897304 245.017
1 0.0343996 -0.00710318 246.373
2 -0.719576 1.13922 246.148
2 -0.937157 -1.14776 246.325
1 0.984537 -0.00678006 247.586
3 1.64636 -0.902802 247.702
3 1.56574 0.920962 247.546
576
 Atoms. Timestep: 200
1 -0.0159334 -0.0262764 -1.9206
2 -0.778964 1.11864 -1.8944
2 -0.817872 -1.13535 -1.81223
1 0.884989 0.00321697 -0.608015
3 1.47469 -0.906709 -0.670384
3 1.47286 0.903579 -0.641989
1 0.0489604 0.0126748 0.71015
2 -0.768904 1.07682 0.754833
2 -0.736364 -1.05515 0.766126
1 0.835306 0.0409071 2.0157
3 1.4673 -0.835163 2.02073
3 1.45117 0.936616 2.01968
1 0.0462286 0.0138962 3.34633
2 -0.769224 1.0748 3.29719
2 -0.73592 -1.05529 3.28612
1 0.866816 0.00868676 4.64033
3 1.46457 -0.896897 4.69323
3 1.43487 0.922947 4.68134
1 -0.012471 -0.0184576 5.98869
2 -0.763376 1.11314 5.97848
2 -0.80645 -1.13454 5.87917
1 0.888481 -0.100914 7.2273
3 1.497 -0.916665 7.17747
3 1.48715 0.758703 7.2465
1 -0.0527545 -0.0172436 8.60579
2 -0.694818 1.21931 8.43932
2 -0.854832 -1.18507 8.54573
1 0.805465 0.0108199 9.82139
2 1.89118 -1.13467 9.81601
3 1.46162 0.821895 10.0198
1 -0.170975 0.00348028 11.1966
2 -0.813322 1.18641 11.2742
2 -0.936201 -1.12922 11.1837