LAMMPS data file via write_data, version 2 Aug 2023, timestep = 40000, units = real

1144 atoms
3 atom types

0.0069343500397271995 4.443708649960236 xlo xhi
0.012706133390091523 8.142414866610103 ylo yhi
0.4072057689951123 260.94785923100676 zlo zhi

Masses

1 12.0107
2 18.998404
3 1.00794

Atoms # charge

600 3 0.2116207154001902 3.5613555399166423 4.824856408483007 5.702744492262615 0 0 0
602 2 -0.1440263493552278 1.41033471705854 4.871773285815483 7.282417230020361 0 0 0
601 1 0.1206720725327451 2.256756941215742 3.7742079615087514 7.1897701764941875 0 0 0
17 1 0.08221401501278382 4.277004454185752 7.949466248694909 1.7363424878751004 -1 -1 0
18 2 -0.1475484916839031 3.62924306253467 1.0610673675681366 1.7715539860605911 -1 0 0
19 2 -0.154064522117935 3.292490319452573 6.922605771946322 1.7523421231999043 -1 -1 0
20 1 -0.1478939544877627 0.6612426843710579 7.753945159957219 3.07696071372193 0 -1 0
21 3 0.1948084621583313 1.353589747018786 6.925121788007893 3.0890055213201024 0 -1 0
22 3 0.1955642251061635 1.3555995714304283 0.4285981581469276 3.0785971315303633 0 0 0
23 1 0.1175331937518125 4.419330988737963 7.768727057144877 4.432250024168457 -1 -1 0
24 2 -0.143232301053011 3.466944564192838 0.693452312763767 4.4567449346572205 -1 0 0
25 2 -0.1457511761734441 3.71675057967421 6.588636417451191 4.38101246466984 -1 -1 0
26 1 -0.00570948697161877 0.8281473958751837 7.8098223481937 5.792025858682404 0 -1 0
27 2 -0.1423237210701201 1.6870714888665148 6.682081367965453 5.854521350796046 0 -1 0
28 3 0.2075697561749612 1.5373981736882738 0.4563483124526323 5.742520240629754 0 0 0
29 1 0.1199950027191699 0.04114003771884918 7.895355897118243 7.195460791348771 0 -1 0
30 2 -0.1469830900055542 3.5898360129811095 0.8022936769115838 7.101118043947855 -1 0 0
31 2 -0.1438148045838147 3.7257073958502205 6.740872340400936 7.351124717076751 -1 -1 0
599 2 -0.1416672833944979 4.145986401852035 2.982192872315956 5.772293773842262 0 0 0
598 1 0.003463507490032382 3.036715354014401 3.878420746165105 5.799248948407844 0 0 0
603 2 -0.1470096029216744 1.5079098312142976 2.6248018505806314 7.212555124333914 0 0 0
589 1 0.08195785732122197 2.099388640002101 4.037431593521904 1.7220517017602321 0 0 0
590 2 -0.1543074874656949 1.3036540395896505 5.113848528943045 1.8133887933000936 0 0 0
591 2 -0.1480261321857243 1.2385202044863641 3.0041129865561595 1.7066312781855248 0 0 0
592 1 -0.141161580796431 2.9730486125640225 3.9504371361620976 3.05829641952271 0 0 0
593 3 0.2061562239441866 3.5603155589644824 3.0339649672012228 3.068084601384501 0 0 0
594 3 0.1947911294824327 3.6400906929808032 4.783025342292577 3.151504348404607 0 0 0
595 1 0.12201121011583 2.231718799990572 3.8432359993118848 4.39168539913352 0 0 0
596 2 -0.1451978600935784 1.2529770415286128 4.777684346559185 4.373294541023064 0 0 0
597 2 -0.1416578744412922 1.6225356267232163 2.6088116855195094 4.282772851528254 0 0 0
32 1 -0.146085793195745 0.7553623917031687 8.077954176408197 8.497577405452908 0 -1 0
604 1 -0.1466133981698178 3.0897327505042185 3.802497011997332 8.475937019404064 0 0 0
605 3 0.1968437375649679 3.6517683895758193 2.918925036553666 8.275432842852544 0 0 0
34 3 0.1888693624732938 1.2970881358786233 0.9327506444597682 8.425860324809976 0 0 0
14 1 -0.1676389051144463 0.5722921045015021 7.819832289907685 0.41740613045151154 0 -1 0
619 1 0.1207560472892692 2.3029933147864785 3.9620489138184727 15.256354980497361 0 0 0
616 1 0.0003217680273365307 3.0848254116340335 3.8707347807359502 13.87537936145855 0 0 0
620 2 -0.1450351216353267 1.6196897937137227 5.226139889337674 15.291530257499764 0 0 0
35 1 0.07484240525893214 4.434274674090355 8.034834108879124 9.905786160019536 -1 -1 0
36 2 -0.1533295510513678 3.5146588088262893 0.9033914064474423 9.927916542183523 -1 0 0
37 2 -0.1482517054881356 3.6643246308545145 6.871744521695614 9.873795228115428 -1 -1 0
38 1 -0.1431195195518281 0.7702685180356438 7.9827387664923135 11.283427609369616 0 -1 0
39 3 0.2007859160595495 1.4864008372787887 7.132901756190602 11.338210015260064 0 -1 0
40 3 0.1966419771646036 1.3263027386521633 0.7579506517344213 11.195287721121822 0 0 0
41 1 0.1239195990557394 4.403754932271491 8.106987702776005 12.59956745496834 -1 -1 0
42 2 -0.1464544380674957 3.8043308556645212 1.2002985170921219 12.59284538044421 -1 0 0
43 2 -0.1440035835967345 3.3926697341337504 7.186491250934083 12.601576665919465 -1 -1 0
44 1 0.003306556400494133 0.7824561072656872 7.944876880695357 13.984258343934926 0 -1 0
45 3 0.210315823107306 1.180404829698455 6.952227181343303 13.990428133273507 0 -1 0
46 2 -0.1423156544146254 1.913107847571349 0.7158452355535646 14.080765645245132 0 0 0
47 1 0.1189368831149834 4.39405302619646 8.003073076910102 15.353544021633 -1 -1 0
48 2 -0.1447063054549573 3.740107166158128 1.09656384430983 15.439922516877363 -1 0 0
49 2 -0.1458191619843915 3.4385286567508957 7.007312991246996 15.254306724042351 -1 -1 0
617 3 0.2096678300567879 3.431183855178682 2.9005129302889006 13.924244547735475 0 0 0
618 2 -0.1414411747001677 4.1087900969525375 4.878720005917095 13.893389972548475 0 0 0
621 2 -0.1433960867675019 1.3077688073620601 3.0102525361106522 15.244521712693507 0 0 0
607 1 0.08720551936701536 2.279544321129237 3.8363352077273016 9.81250687512641 0 0 0
608 2 -0.1489701179373437 1.5077193458736893 4.976811097921304 9.811024898317777 0 0 0
609 2 -0.1543492998621727 1.4173870223327985 2.7744529255013526 9.884040402124102 0 0 0
610 1 -0.1505602730819366 3.1626063167715666 3.855702481028029 11.160854923502399 0 0 0
611 3 0.1936502498121667 3.761076406385193 2.9818528496717733 11.240695824361458 0 0 0
612 3 0.2034706988564859 3.8109593214362336 4.648381045167409 11.239638519565583 0 0 0
613 1 0.1131734012846298 2.3333287083852006 3.9047914279728126 12.435898115909106 0 0 0
614 2 -0.1438080007495669 1.6469190010988755 5.109391617125274 12.348990634741599 0 0 0
615 2 -0.1472575604253948 1.4421393038594514 2.836225405978816 12.374212218760633 0 0 0
33 3 0.2026841489295969 1.5116324904103737 7.357183300905423 8.577121778704813 0 -1 0
50 1 -0.1515641835698416 0.7449909791811048 7.853072386113948 16.665295447982533 0 -1 0
622 1 -0.1431775668394082 3.0293807930885843 3.7917721947870624 16.58663216182751 0 0 0
623 3 0.2008740967585444 3.4959287737130094 2.8145319233103248 16.598864807135826 0 0 0
51 3 0.1923752885614293 1.23871737465197 6.930856715669869 16.626378146577633 0 -1 0
52 3 0.202702889853034 1.503843358419565 0.45816442175794125 16.633225394280096 0 0 0
606 3 0.2018347844971024 3.7985693938953604 4.624651652364473 8.571017474657832 0 0 0
635 2 -0.1408450523556587 3.967419877229517 2.919521236902253 21.977467413721815 0 0 0
638 2 -0.1459865841038381 1.0863366179201244 4.6035309997906 23.56079632392199 0 0 0
634 1 0.004613432657437733 2.770009093481308 3.7910221482081767 22.061575984806638 0 0 0
53 1 0.07634328001012246 4.41138299991694 7.940752918668624 18.03674788066185 -1 -1 0
54 2 -0.150101779600692 3.709208401980331 1.0033869840382383 18.009094750966728 -1 0 0
55 2 -0.1527812203549513 3.4404444763914195 6.959380275145148 18.03980861089626 -1 -1 0
56 1 -0.1484167799137415 0.7442924458345518 7.899862939849484 19.454401325241825 0 -1 0
57 3 0.1936151379206802 1.307593896713871 7.021346483953114 19.379802186564476 0 -1 0
58 3 0.1991370391455454 1.4765247176978789 0.5633427465556531 19.48978436884559 0 0 0
59 1 0.1170761911544813 4.37148388419597 7.85435781991431 20.719999742020775 -1 -1 0
60 2 -0.1438583214673792 3.4978308995365848 0.8282905397975132 20.766977077592195 -1 0 0
61 2 -0.1468890481868859 3.5988367737092655 6.6864301691391885 20.62707629719108 -1 -1 0
62 1 -0.0002669959493377672 0.7049878799961713 7.844220062402742 22.141773016328532 0 -1 0
63 2 -0.143364277269214 1.7130397892470208 6.800995366288426 22.116831194642373 0 -1 0
64 3 0.2108083691713011 1.2455830957718346 0.6425231765848888 22.075098432149417 0 0 0
65 1 0.1162564464237827 4.373603880277974 7.781872254985472 23.56139677988522 -1 -1 0
66 2 -0.1437661349972936 3.452676591616657 0.6616134251682628 23.529341379448 -1 0 0
67 2 -0.1456612968806397 3.638647457557636 6.552087001378309 23.571241490194048 -1 -1 0
636 3 0.2059054070566811 3.2159272158140255 4.799521126141085 22.058442892954478 0 0 0
639 2 -0.1436538725038516 1.4505485864420185 2.4478145945475918 23.60358301131945 0 0 0
637 1 0.1181385799847996 2.085878355619254 3.6589445074856823 23.504253756535526 0 0 0
625 1 0.07147481247905374 2.2108373703512822 3.8075689260747825 17.97793241541194 0 0 0
626 2 -0.1525597045715587 1.2876306474347203 4.875245830287155 17.981604925028392 0 0 0
627 2 -0.149627669724047 1.491922796707058 2.647464474577295 17.926880464954554 0 0 0
628 1 -0.1447967115835288 2.8833342602186725 3.8453049874418976 19.360677924939356 0 0 0
629 3 0.2020972110590586 3.6233151541493007 3.0365290032820016 19.323751669060123 0 0 0
630 3 0.1908981992363345 3.464455421908731 4.747041849585729 19.463191291497765 0 0 0
631 1 0.1200509435797524 2.028544670384599 3.670781868830762 20.662425812406358 0 0 0
632 2 -0.1468457243747508 1.0427142642823704 4.627659402764204 20.655431480224234 0 0 0
633 2 -0.1442199009665651 1.3920395730516109 2.436285679059232 20.55647462234574 0 0 0
642 3 0.1929216443082305 3.526428814627172 4.708767788589111 24.700348720653725 0 0 0
640 1 -0.1455187726776634 2.897564157557445 3.8227974344822 24.826620071321795 0 0 0
624 3 0.1962706054166569 3.7490248307151695 4.606464131407827 16.697148265290377 0 0 0
652 1 -0.002976483407411445 3.0743509275788625 4.013105687029631 30.35312654526476 0 0 0
655 1 0.1136523816021764 2.2515591803368027 4.088445687487929 31.706584553843815 0 0 0
656 2 -0.1460682795799448 1.4667306359497494 5.284000633411615 31.746385646751445 0 0 0
71 1 0.0759174785146655 4.419476617380116 7.985011618951548 26.247548673704166 -1 -1 0
72 2 -0.1498625698075407 3.499252253426587 0.963056538113342 26.205473702672027 -1 0 0
73 2 -0.151011862028864 3.6453133337391477 6.839364285801461 26.323210384389636 -1 -1 0
74 1 -0.1499331193544829 0.7515004983582348 8.05893485731934 27.62792964052791 0 -1 0
75 3 0.1955377023383544 1.3122375310397567 7.13441237654579 27.7073118026048 0 -1 0
76 3 0.2011563875146716 1.4771705994415891 0.6418143421845005 27.535317594657073 0 0 0
77 1 0.1248102690312332 4.355880903930158 0.13848930377622826 28.900473542556746 -1 0 0
78 2 -0.1443569171566997 3.840332643543625 1.414054518413772 28.844373501310546 -1 0 0
79 2 -0.1452083396783303 3.3346131492924624 7.351955065080166 28.86898537479699 -1 -1 0
80 1 0.003333829517270662 0.6508989607625372 8.09683609242469 30.332605565205814 0 -1 0
81 3 0.2064346465321485 1.1215998740771007 7.129240156369316 30.351605983699155 0 -1 0
82 2 -0.1416186426658786 1.8709437826614668 0.7832308383310097 30.36706083317288 0 0 0
83 1 0.1184621093753805 4.351633107529203 0.15723749332541778 31.753643634840024 -1 0 0
84 2 -0.1449905337596906 3.934520671114081 1.45743459194992 31.786664830958646 -1 0 0
85 2 -0.1461031463488904 3.213959060646297 7.536462027791901 31.77204310652022 -1 -1 0
657 2 -0.144709141652058 1.354093023927114 3.035084803916859 31.71579812221231 0 0 0
654 2 -0.1428819092031549 4.035792342751497 5.039841874137621 30.35554115171891 0 0 0
653 3 0.2110808665634824 3.546037464451332 3.069515354646685 30.40001716956767 0 0 0
651 2 -0.1440664035874253 1.3869161537051644 3.0435581284164734 28.956139253443354 0 0 0
643 1 0.07573423710947397 2.2055879262332234 3.9295257707014435 26.205041254870686 0 0 0
644 2 -0.1514025003237489 1.499645703176162 5.096493470610483 26.173121184438592 0 0 0
645 2 -0.15006864256588 1.3234877859457441 2.8801274949614855 26.2969598990356 0 0 0
646 1 -0.1486600873734382 3.0478135647173286 3.981764200248646 27.633951427468947 0 0 0
647 3 0.1978903865027774 3.6263035509843995 3.0580618559933876 27.70566580215638 0 0 0
648 3 0.1985216730517784 3.706404194454713 4.713871229196948 27.46466926855206 0 0 0
649 1 0.1264521064315009 2.2849843985935574 4.0794908430065115 28.911698713259685 0 0 0
650 2 -0.1450139613388524 1.587498474313233 5.249342751715474 28.86033922791381 0 0 0
69 3 0.1988718079939382 1.3737701428702143 7.051569751984555 24.88144771788176 0 -1 0
70 3 0.1968868401754399 1.2919470211977389 0.6215524026389727 24.839562306688716 0 0 0
68 1 -0.1531982497871375 0.7171022153125906 7.878583077131461 24.90436463810306 0 -1 0
659 3 0.197193103931832 3.7018524222719598 3.1656963690891406 32.930335935442855 0 0 0
87 3 0.1946611672523151 1.1585236132972534 7.037512330409749 32.94182462983458 0 -1 0
660 3 0.1963646855764223 3.738409030034345 4.847654512978795 32.974114843509575 0 0 0
641 3 0.1994894694426169 3.632162781463502 3.079159550135644 24.851136696566847 0 0 0
672 3 0.2094264594633035 3.156062295168747 4.899394513899304 38.54895162186623 0 0 0
671 2 -0.1405843357438265 4.016825084602694 3.2115480328545014 38.5249745859604 0 0 0
89 1 0.08222883299616875 4.407020796141111 8.08279175294971 34.44813836851096 -1 -1 0
90 2 -0.1498982510199985 3.605534215638586 1.0827941395200065 34.391894090505446 -1 0 0
91 2 -0.1510091765757718 3.500087924554329 6.981772506252076 34.42861397897451 -1 -1 0
92 1 -0.1447556664737858 0.7480857326729278 8.128478379750865 35.868436882231414 0 -1 0
93 3 0.1973872701074218 1.540181455359492 7.3598198043681196 35.84465740028291 0 -1 0
94 3 0.195967818023744 1.368473744435869 0.8512412947650894 35.97237894901779 0 0 0
95 1 0.1179224236556926 4.4210642541980345 7.910945019001593 37.161314563206304 -1 -1 0
96 2 -0.1448618178158657 3.368035645093542 0.6685826221459736 37.13914048467627 -1 0 0
97 2 -0.1447907477846828 3.8850866982238905 6.58743546793957 37.08102201982244 -1 -1 0
98 1 -0.006569367113973344 0.7078312970203752 8.04579472764695 38.575052557526156 0 -1 0
99 2 -0.1426265519376957 1.7508921658289742 7.126688161854234 38.56293851578222 0 -1 0
100 3 0.2056485131293211 1.3164299434212368 0.7765436061620186 38.60257699081503 0 0 0
101 1 0.1160116915453382 4.405290245963847 7.979193158322746 40.03076673351528 -1 -1 0
102 2 -0.1473005186965253 3.4718562801721093 0.8220249209729474 40.06871607582678 -1 0 0
103 2 -0.1456449485096839 3.6837539568893978 6.789775862262869 40.20198087828258 -1 -1 0
675 2 -0.145698438417497 1.4993717144654575 2.5201825776605924 40.03361067846743 0 0 0
673 1 0.1179903521597987 2.039808241921135 3.8048524102831505 39.967515894878275 0 0 0
674 2 -0.1438665551789216 0.9950483267663053 4.644769404334486 40.00619286098745 0 0 0
670 1 -0.0005905324012429498 2.800257434388709 3.9519587135524747 38.52375921917559 0 0 0
661 1 0.08505514184452881 2.29960681267581 4.002960274336525 34.41711216409877 0 0 0
662 2 -0.1510653442486309 1.4590441577564754 5.155485360688556 34.449098475232844 0 0 0
663 2 -0.1499177688442881 1.4672986858256547 2.939385831032113 34.42486700790332 0 0 0
664 1 -0.143802822622271 3.0307299317576097 4.0014375357963665 35.79192725817497 0 0 0
665 3 0.1998271944045326 3.6850902734165594 3.169694866802071 35.69133456806231 0 0 0
666 3 0.199819433645872 3.646917380542149 4.845294751942653 35.94072161566245 0 0 0
667 1 0.1142024518205648 2.169687675525562 3.8869920375166496 37.065181408644285 0 0 0
668 2 -0.1452642926917159 1.2203683699935313 4.855138596133271 36.94428448497984 0 0 0
669 2 -0.144478086086924 1.499631756006507 2.6596262129288437 36.94562451941574 0 0 0
86 1 -0.1495331967537384 0.7109801664272515 7.984519858987365 33.05428786860388 0 -1 0
88 3 0.2037203068539087 1.4808310879534141 0.5855125241066963 33.0439298434063 0 0 0
658 1 -0.1470499583515179 3.0623597401610296 4.037527631438427 33.02521918345663 0 0 0
689 3 0.2076988762352471 3.3054589571754303 3.0765746188271814 46.644385230465446 0 0 0
690 2 -0.14206522280534 3.953650817299485 4.8984080098272065 46.72616255557933 0 0 0
107 1 0.08251554073492609 0.14895565265618918 8.078263181221553 42.651955368005204 0 -1 0
108 2 -0.1518585763512688 3.767343794671275 1.0934503885089886 42.64177483964944 -1 0 0
109 2 -0.1524596917554104 3.658009123206176 7.034101904907629 42.734127101429394 -1 -1 0
110 1 -0.1472248727720501 0.9433187429344265 8.061939635531505 44.03062093749765 0 -1 0
111 3 0.1958579704615993 1.5106410161067554 7.1891765950961295 43.99861246921324 0 -1 0
112 3 0.2002650347102539 1.612547117604964 0.7527711120060666 44.01841285010619 0 0 0
113 1 0.1211936762829359 0.09331249054883149 8.020467082651543 45.30037908135722 0 -1 0
114 2 -0.1452538842364752 3.697462002919596 0.9735224438861274 45.221921302056025 -1 0 0
115 2 -0.1460985765404547 3.714127707349948 6.881642362525995 45.31401257736725 -1 -1 0
116 1 -0.003344775642972128 0.8371281991975773 8.094974063510827 46.7147757679308 0 -1 0
117 3 0.2087556517931514 1.4667909806860238 7.275294696402595 46.73427831186667 0 -1 0
118 2 -0.1422224150706622 1.7540977265870776 1.1166907683070557 46.69709733294333 0 0 0
119 1 0.1196198332986566 0.03518187181306937 8.102968714858608 48.11181616136012 0 -1 0
120 2 -0.1446876445401555 3.845235937526197 1.2497229210526763 48.1867436423682 -1 0 0
121 2 -0.1452442393208526 3.4130977127870787 7.197098763828592 48.07661902125357 -1 -1 0
693 2 -0.1449442326468588 1.198210019475579 3.083783076012393 48.214386152029284 0 0 0
688 1 -5.82646726379997e-05 2.8023648782999553 4.025390171100143 46.72643592350093 0 0 0
691 1 0.1186354948088578 2.07891658191526 4.121275675101633 48.16602368112653 0 0 0
692 2 -0.1452752301096399 1.3451825711672003 5.262837419991176 48.279103634653765 0 0 0
679 1 0.0814104574382869 2.0690868340638726 4.053842366587944 42.667719739599974 0 0 0
680 2 -0.150900212843941 1.3135755634228863 5.1613365456195 42.641240008062525 0 0 0
681 2 -0.1505830524799699 1.1830467411948953 2.9896864682189155 42.73271840480274 0 0 0
682 1 -0.1468384138149987 2.869048726044466 4.054908416460722 44.05424312576624 0 0 0
683 3 0.1963107821998035 3.514804955755768 3.170634921945229 44.20712699180299 0 0 0
684 3 0.2023104497225321 3.499519538509641 4.925778372171262 44.10917185029181 0 0 0
685 1 0.1143378037993412 2.0592502795114527 4.166721372658681 45.310928110417144 0 0 0
686 2 -0.1454364304891915 1.410625694676089 5.41552023571956 45.31236829729813 0 0 0
687 2 -0.1452614378139559 1.1014461831100646 3.1943471647224526 45.22303405766884 0 0 0
104 1 -0.1458529087874242 0.8927866244556864 8.082655974979795 41.26308250733659 0 -1 0
676 1 -0.1436748162509591 2.8173649731062063 3.962362339354889 41.29682138930564 0 0 0
106 3 0.193639264912745 1.5279032911416037 0.8582989021380498 41.13888133862701 0 0 0
105 3 0.19830142631055 1.5641426732012091 7.286081972868304 41.24930569220671 0 -1 0
677 3 0.199503407983725 3.5190199456945526 3.1321783493892017 41.35000132627358 0 0 0
678 3 0.1964085246356457 3.4348616564407366 4.856155606759922 41.324521960377865 0 0 0
707 2 -0.1443403969140551 4.0744911318708 2.923367667142266 54.88455509409013 0 0 0
711 2 -0.1463845080604803 1.4930844051061325 2.6157047840708265 56.34810585597868 0 0 0
125 1 0.07742235519366174 4.416681079841548 8.032436432660445 50.80306512208439 -1 -1 0
126 2 -0.151122713110405 3.5940836410448864 1.0125620205409513 50.734121576027825 -1 0 0
127 2 -0.1507953671130633 3.581667185383593 6.939511018943852 50.77562276971607 -1 -1 0
128 1 -0.145979224125164 0.6801114220079612 8.074314045339085 52.24528224283235 0 -1 0
129 3 0.2020723272276818 1.2866076966079019 7.161491870973647 52.2471535898864 0 -1 0
130 3 0.1974620626199974 1.3217813349182097 0.7906077223149334 52.29366015272219 0 0 0
131 1 0.1220423510012795 4.309520009217682 7.9457473264695935 53.487438924428574 -1 -1 0
132 2 -0.1462712831885023 3.3835680915730477 0.8247025767915218 53.46534715069972 -1 0 0
133 2 -0.1442852600514505 3.678146508001318 6.714405401420251 53.445143541923116 -1 -1 0
134 1 0.0005632349800392053 0.6740438209738785 7.952644942294391 54.932062964342656 0 -1 0
135 2 -0.1412872676553099 1.7115659581135323 6.989508641911243 54.885251643523446 0 -1 0
136 3 0.2073192146370484 1.1771043775299672 0.7604752335600388 55.03284601947855 0 0 0
137 1 0.1228914645468777 4.309589190344501 7.725378649941392 56.27525833678126 -1 -1 0
138 2 -0.1454635473733932 3.2477961331966254 0.5030117500090336 56.3095528966353 -1 0 0
139 2 -0.1437004222756973 3.7882171119756682 6.4605838804350535 56.262066753270815 -1 -1 0
710 2 -0.144680399782261 1.3776467711354627 4.93023733130751 56.332978336493916 0 0 0
709 1 0.1210786962677033 2.2605465334132204 3.8072448599435105 56.297998319301804 0 0 0
708 3 0.2120988930408354 3.587480618079116 4.820502016080798 54.944223111598724 0 0 0
697 1 0.07682908654153314 2.167046935040091 4.034248171591969 50.87371415012491 0 0 0
698 2 -0.1508942218301619 1.4585943755108297 5.259825598057982 50.95922149562608 0 0 0
699 2 -0.151307240385992 1.258940073945562 2.9973559409273354 50.90202902705907 0 0 0
700 1 -0.1465787075128949 3.0114306397511053 3.9438800584981695 52.1992629404404 0 0 0
701 3 0.1957273205525653 3.634113831078809 3.0391882799428305 52.09413197599712 0 0 0
702 3 0.1977922690199447 3.7163067234974845 4.690704601077379 52.21314769930624 0 0 0
703 1 0.1262357385469466 2.2574495394744676 3.779585282291581 53.52648225802586 0 0 0
704 2 -0.1450518325278803 1.212714091101299 4.734176636968731 53.54912626949005 0 0 0
705 2 -0.1467392400840146 1.6283440551661066 2.5360050218414236 53.46468275250813 0 0 0
706 1 -0.002141324964513013 3.0590519407827057 3.8768675862617803 54.903016120710056 0 0 0
122 1 -0.1467407028693195 0.7555114494785924 7.978946706351942 49.4734711721666 0 -1 0
124 3 0.1985714415975919 1.4128755894798661 0.6647321164852564 49.47493683430148 0 0 0
696 3 0.1998256026811407 3.565310057438467 4.864278034199687 49.43674113934074 0 0 0
694 1 -0.1490364244046899 2.873180018459392 4.005177685647446 49.45583151720071 0 0 0
695 3 0.1980724679938731 3.4044605117148046 3.124195597176651 49.370372359510476 0 0 0
123 3 0.1944132030599071 1.3954253449903202 7.079028942738382 49.48057597140652 0 -1 0
140 1 -0.1488964066765873 0.6592071918585061 7.919195457567948 57.60854752695436 0 -1 0
726 3 0.1920218258611636 3.4699644117092614 4.99889314874113 62.9300455932158 0 0 0
727 1 0.08463560113247959 2.171905038229414 4.028523428398935 64.30781635083176 0 0 0
143 1 0.07690067378157452 4.288012291735367 7.9999652393954985 58.95063567416692 -1 -1 0
144 2 -0.1509469730658679 3.4666085233295405 0.9564133008457136 58.85727678607717 -1 0 0
145 2 -0.149820463026694 3.4311318272574307 6.8349861463930965 58.91463154967412 -1 -1 0
146 1 -0.1624841704195005 0.6336747489775848 7.986771773667385 60.313688206415065 0 -1 0
147 3 0.1909383868816755 1.2583658022006072 7.124130584494827 60.345264690740464 0 -1 0
148 3 0.1869560836927805 1.1938383978937588 0.7546884621253537 60.33006302773396 0 0 0
149 1 0.07572493740922268 4.270179507671537 8.040786483684931 61.67122447261205 -1 -1 0
150 2 -0.1505881284995224 3.465319548572511 1.0025138190415759 61.652677502635015 -1 0 0
151 2 -0.1495498747265792 3.447014320331307 6.936543295738149 61.788540226391895 -1 -1 0
152 1 -0.1585284889002653 0.6838809796766142 0.014392203285600334 63.010053793953965 0 0 0
153 3 0.192189969191086 1.214238083926873 7.300731943990876 63.0233746747123 0 -1 0
154 3 0.1907498602073704 1.3389937767102327 0.8258703172542181 62.933875823661666 0 0 0
155 1 0.08333621708870959 4.346346389233735 0.013496382996141972 64.38446786636474 -1 0 0
156 2 -0.1515996809169458 3.5658621787688287 1.1344534345443311 64.39996391680286 -1 0 0
157 2 -0.1492392753601647 3.491228376526352 7.018498588710283 64.40876497508633 -1 -1 0
729 2 -0.1516858477193175 1.307295956525032 2.9457189798193624 64.31145972806408 0 0 0
724 1 -0.1489067287718255 3.0061761466616934 4.033271527194763 62.97542163073119 0 0 0
725 3 0.1900013946686686 3.7758839395103894 3.2855175604353763 62.97404716213924 0 0 0
728 2 -0.1490776772944105 1.2798547443434602 5.160931579808368 64.28175464758257 0 0 0
715 1 0.083861637773067 2.331452786987406 3.9693517412495716 58.920523135332026 0 0 0
716 2 -0.1511353535623125 1.581475313138469 5.161567317492194 58.916372632140735 0 0 0
717 2 -0.1521220213260032 1.4347387001424736 2.9714640391710927 58.875411922513265 0 0 0
718 1 -0.1580625765080413 3.1005243636853663 3.8969340600059494 60.24269438700037 0 0 0
719 3 0.1871840971044339 3.6901476073234507 3.0315355623916895 60.2148187948948 0 0 0
720 3 0.1889055790506055 3.736488524433727 4.748012181866267 60.24709037902398 0 0 0
721 1 0.08121616055296185 2.2304700756244507 3.944427983040068 61.59929469506565 0 0 0
722 2 -0.1507400222738875 1.3783882172648894 5.023817418935997 61.508713960966006 0 0 0
723 2 -0.1516756666652527 1.4270510940677876 2.854422350654977 61.62651290591024 0 0 0
714 3 0.1984354033865912 3.8895825995373516 4.64644942282512 57.467822287240985 0 0 0
713 3 0.1979808452061742 3.67818390816504 2.984857413598915 57.50750457454855 0 0 0
712 1 -0.1463199442922119 3.14410772131786 3.8762224497955717 57.51756884085345 0 0 0
141 3 0.2038663327136034 1.205621567064133 7.0633296361822655 57.703695768043936 0 -1 0
142 3 0.1947643836623672 1.359112224292135 0.6074416149917102 57.517094269029656 0 0 0
158 1 -0.1545092087689452 0.7051389517834711 0.021628289912708883 65.73900742567274 0 0 0
747 2 -0.1456525884908969 1.4752732832280282 2.8229387918254187 72.59442889781931 0 0 0
161 1 0.08072676708553576 4.344644901717604 8.070413068373693 67.03571310246542 -1 -1 0
162 2 -0.152610730840068 3.4023859933291267 0.9728529513435137 66.99384296883228 -1 0 0
163 2 -0.1483703451362053 3.5848543177542345 6.892999315970908 67.02643967492418 -1 -1 0
164 1 -0.1473280853136857 0.7072292081918367 8.11009866967801 68.45998390211008 0 -1 0
165 3 0.2061299614615603 1.4132889787192404 7.3218758356744 68.41615909266328 0 -1 0
166 3 0.194080455383766 1.2028854442517845 0.9034419005543444 68.44397184526295 0 0 0
167 1 0.122617462381017 4.3665123357062505 7.98920804751453 69.7570953598224 -1 -1 0
168 2 -0.1447473769115104 3.368237725038077 0.8125264369983332 69.71916623552971 -1 0 0
169 2 -0.142082693730976 3.705606577853003 6.723022525807981 69.66736871068892 -1 -1 0
170 1 -0.00156799608926214 0.6632738884298252 8.11208361245024 71.15980888391253 0 -1 0
171 2 -0.1415633276759528 1.7868696179581818 7.256315061342145 71.20212058655174 0 -1 0
172 3 0.2066339190807118 1.0935842635900028 0.9755083366362791 71.16812345741856 0 0 0
173 1 0.1096671863063567 4.3525975069833835 8.011855183636765 72.58557409822996 -1 -1 0
174 2 -0.1462122823760379 3.3760235302199844 0.8759694848837193 72.64937612104588 -1 0 0
175 2 -0.1462281355029573 3.7317202726778333 6.762410601568708 72.6624317505735 -1 -1 0
730 1 -0.1523890268647445 2.9601794630973974 4.002182412563602 65.6721437740304 0 0 0
746 2 -0.1462436450647409 1.3842201919929995 5.045958314182288 72.62393293814462 0 0 0
732 3 0.193863634249057 3.6991928794117848 4.814032018798808 65.65639077340543 0 0 0
733 1 0.08209077146203064 2.1581761131403407 4.03814383132853 67.00477106767083 0 0 0
734 2 -0.1483458271900858 1.4365919749431084 5.225407017495334 66.96477775935477 0 0 0
735 2 -0.1527533083420059 1.2603084747533857 2.980930123858079 67.05368233568639 0 0 0
736 1 -0.149946623021911 2.972798360258438 4.01589247207134 68.41089021728021 0 0 0
737 3 0.1966387650584422 3.6509721148696874 3.2458560350375354 68.44457151290169 0 0 0
738 3 0.2000142954198542 3.568563067453081 4.872009783270222 68.49640484864065 0 0 0
739 1 0.1158864356972718 2.1910989245939736 3.9235242947954734 69.70083600366648 0 0 0
740 2 -0.1431273767494993 1.2506102988793713 4.954846692123514 69.66351944948974 0 0 0
741 2 -0.1458107203957976 1.5548084876655819 2.7236334974991583 69.61198662039942 0 0 0
742 1 -0.006481987227927853 2.97409196092453 4.003167150022592 71.14723332578856 0 0 0
743 2 -0.1432644475908188 4.01211874296042 2.9746592646467223 71.11447673285255 0 0 0
744 3 0.208578825997539 3.47554209582062 4.906127279085552 71.15690509365082 0 0 0
745 1 0.1128854581607681 2.260355372308867 3.993091894784293 72.5519010046561 0 0 0
159 3 0.1926013783287057 1.520451773420128 7.457078995439462 65.68073911245557 0 -1 0
731 3 0.1855563789979922 3.4581740469787086 3.046446240343382 65.7235846474327 0 0 0
160 3 0.1833243677869092 1.1841831883483112 0.9930798344289249 65.7507074833746 0 0 0
178 3 0.1998347052604001 1.3155441265845502 0.8958391006099734 73.67491593834478 0 0 0
177 3 0.2016445015595868 1.5075317300951083 7.290014195612007 73.70443029460385 0 -1 0
763 1 0.113898247993111 2.1356028480745644 4.183271699735068 80.68328514805415 0 0 0
764 2 -0.1448128771185795 1.524337090337977 5.414699369890882 80.80199766552074 0 0 0
179 1 0.08452131499904018 0.07738921729362183 8.096242205098774 75.21553235458094 0 -1 0
180 2 -0.1495745527531801 3.7114377921196624 1.0856920416609452 75.26239335947633 -1 0 0
181 2 -0.1524318042838684 3.688970140501829 6.981971401666891 75.21709030069569 -1 -1 0
182 1 -0.149725209063628 0.8584932740167199 8.023818086810149 76.5763682832967 0 -1 0
183 3 0.1940782019548053 1.323436587866884 7.120346077292855 76.55921494348765 0 -1 0
184 3 0.2071887459600384 1.608634826478676 0.6690850699630209 76.57859527514938 0 0 0
185 1 0.1252796622525722 0.018900355411733474 0.017386370012644328 77.84059694248963 0 0 0
186 2 -0.1430863389532066 3.817565583740368 1.2518545972271362 77.73824204474555 -1 0 0
187 2 -0.1460928172350169 3.4081735686429817 7.1798254470500975 77.799734499021 -1 -1 0
188 1 -0.0001297514026158617 0.7759419754609898 8.046575516952837 79.2488094220485 0 -1 0
189 3 0.20928926118002 1.2959071948322418 7.150112191838429 79.22523139480316 0 -1 0
190 2 -0.1406501941685708 1.9316763404133022 0.8554896513951636 79.27558975410847 0 0 0
191 1 0.1285355363444075 4.408930308500128 0.08807569784599167 80.60756524080924 -1 0 0
192 2 -0.1440829321009194 3.863492802207554 1.358094281882294 80.60933899473004 -1 0 0
193 2 -0.1443747791225581 3.3052773944222036 7.380525290230492 80.59907331776122 -1 -1 0
748 1 -0.1446281945996586 3.035125074366678 3.991570714281804 73.88909385155553 0 0 0
750 3 0.1913091283397133 3.6466190324957 4.916343643390649 73.88811924739966 0 0 0