LAMMPS data file via write_data, version 2 Aug 2023, timestep = 40000, units = real

1144 atoms
3 atom types

0.0032049289457325436 4.443560071054181 xlo xhi
0.005872541573343604 8.142143458426924 ylo yhi
0.18820303015655782 260.93916096983423 zlo zhi

Masses

1 12.0107
2 18.998404
3 1.00794

Atoms # charge

600 3 0.2126501591011338 3.390396991397346 5.037927213915715 5.729227953435962 0 0 0
586 1 -0.1578222945042391 2.9194506953248016 4.142005057545298 0.3420039138924031 0 0 0
603 2 -0.1465822554801268 1.5356133587961542 2.7212463711386565 7.046637199543692 0 0 0
17 1 0.0761632903724894 0.1256500193719041 0.038564685951542874 1.5984893013412607 0 0 0
18 2 -0.1494027843707611 3.713530250575919 1.1153277134514132 1.5053728867919831 -1 0 0
19 2 -0.1539719038956416 3.7715998239399746 7.012357618054322 1.5664471200911692 0 -1 0
20 1 -0.1474296033662823 0.8839889948924456 0.13416380871215638 2.9909023867912397 0 0 0
21 3 0.1943878226234452 1.4371110767808486 7.353347969071195 3.0258634807611218 0 -1 0
22 3 0.2023133924858958 1.557466786959474 0.9039590260149225 3.0502821118606205 0 0 0
23 1 0.1175670358832896 0.09811026745928424 0.059843334414656724 4.272114744458961 0 0 0
24 2 -0.1431012707756387 3.5421002925563547 1.0841168870225264 4.2249021399860505 0 0 0
25 2 -0.1444277652133708 3.823566677638884 7.025559798759959 4.174698082758793 0 -1 0
26 1 0.004202285622132474 0.8470662358636741 0.08186684989429227 5.671804814923229 0 0 0
27 2 -0.1410111183135086 1.8690621669614012 7.234435749656899 5.663524152598387 0 -1 0
28 3 0.2098025705511517 1.2806918367015026 1.094438526791571 5.674397783680838 0 0 0
29 1 0.1232576944212327 0.0032258647632690857 8.106400897046022 7.069752379565939 0 -1 0
30 2 -0.1463791654564826 3.5008705116292873 0.8996367369257616 7.0810903381949775 0 0 0
31 2 -0.1420183140717818 3.823347672089578 6.858848317817333 7.0719173931518196 0 -1 0
588 3 0.1821734312542002 3.515897225822463 5.050853489749955 0.43436520368321857 0 0 0
602 2 -0.1434136046114977 1.2933832696864285 4.964105411674594 7.1634174566498885 0 0 0
601 1 0.118567254260763 2.2443742221509915 3.936941508526114 7.088059985078321 0 0 0
589 1 0.07200225680185454 2.1195716271025797 4.048612658598562 1.645154655648321 0 0 0
590 2 -0.1530168274263673 1.150857176082219 5.053197174214161 1.6537857103390505 0 0 0
591 2 -0.149018631766182 1.4493079309856731 2.7797510098102824 1.6864809867789403 0 0 0
592 1 -0.1518184604704662 2.9723370555665736 4.219558792116378 3.0019159668993085 0 0 0
593 3 0.2063189366509894 3.8023398351894673 3.564124130012786 3.0685208320964037 0 0 0
594 3 0.1904786796270071 3.2714038557389546 5.220966848447623 2.8930387797852872 0 0 0
595 1 0.1231651063862842 2.236416678640951 4.000020844804155 4.333755284451742 0 0 0
596 2 -0.1436243462700846 1.196560115425623 4.941244263579921 4.420595835899008 0 0 0
597 2 -0.143217908659314 1.612329109088073 2.758768579834826 4.254998832520586 0 0 0
598 1 -0.004124382048154377 3.0235451281086845 4.090671717429905 5.722302425274244 0 0 0
599 2 -0.1422858488570471 4.263042623644013 3.2603123715155062 5.679127724627509 -1 0 0
14 1 -0.1525866700058017 0.8745852870866303 0.07227122026908743 0.23043629378402913 0 0 0
587 3 0.1915913853496815 3.6271333273538184 3.3256272461362166 0.3279480368903227 -1 0 0
16 3 0.1933357611349843 1.5155399890226533 0.9438300083027369 0.3737905172531972 0 0 0
605 3 0.1952565457098323 3.6671726615586078 3.0173676310893613 8.442531519106366 0 0 0
620 2 -0.1425093489392206 1.5087369429939654 5.352301600576028 15.318959061672068 0 0 0
618 2 -0.1410000564415973 4.079987006064419 5.12901607836052 13.875321918581049 -1 0 0
35 1 0.07683014383602137 0.012884166151099892 0.08770697814085757 9.79213378064079 0 0 0
36 2 -0.153777060789124 3.6967050906494454 1.2596744163840672 9.770870959003263 0 0 0
37 2 -0.1481524387544942 3.570495901415735 7.102954077816643 9.742773529978985 0 -1 0
38 1 -0.1459989293375976 0.793498485463313 8.100550766630136 11.200429505913542 0 -1 0
39 3 0.1985185224804636 1.3975209165612585 7.1983796442134 11.203604750165175 0 -1 0
40 3 0.1991518969926473 1.432859132618284 0.8212079849891112 11.321352867725587 0 0 0
41 1 0.1141944321465035 4.371546809984249 0.023172305254501344 12.454165808756125 -1 0 0
42 2 -0.1473441157625127 3.678160549759916 1.2315826650949422 12.312975910700612 0 0 0
43 2 -0.1449702737933372 3.4685837059327382 7.197312224060591 12.337373993114996 0 -1 0
44 1 0.001267734069357139 0.6939535157155851 8.068170732388268 13.858890295938869 0 -1 0
45 3 0.2125587393004117 1.2184971182052229 7.13152910644963 13.814022856283152 0 -1 0
46 2 -0.1429793990755162 1.8114406524695466 0.7816261026600009 13.87163961393458 0 0 0
47 1 0.1253264904367269 4.406128698917206 0.06964986224217914 15.303253690706576 -1 0 0
48 2 -0.1460259798684418 3.6134489020808678 1.2150782890028518 15.288365528624606 -1 0 0
49 2 -0.1435990155308582 3.520624983876991 7.099709921147073 15.379867563537871 0 -1 0
604 1 -0.1405253353636675 3.0494122883398322 3.882743667090312 8.463512924684814 0 0 0
619 1 0.1162710934558937 2.234899920037788 4.140230226048681 15.286208962626473 0 0 0
621 2 -0.1455702113886984 1.2307551701607304 3.1428625654484232 15.226027870301946 0 0 0
607 1 0.07944184146302957 2.3119726032819177 3.880753089032888 9.84773272524543 0 0 0
608 2 -0.1485317260569316 1.5132994777740014 4.993565450918372 9.787631249448276 0 0 0
609 2 -0.1534695933302219 1.4615161643028327 2.8112720406067897 9.801104472289058 0 0 0
610 1 -0.1499800755799167 3.0457743188713637 3.946866418585345 11.219358308890047 0 0 0
611 3 0.1951359932351165 3.5367265239219217 3.0506653010905 11.341009412733525 0 0 0
612 3 0.2014210944188179 3.780487507537513 4.754520237599882 11.276817991321307 0 0 0
613 1 0.114650998508489 2.1804130744539325 4.1560808113648475 12.523926901928471 0 0 0
614 2 -0.1443238248893778 1.5284089084752241 5.320215401969115 12.449201932921843 0 0 0
615 2 -0.1465338567544301 1.17840984104261 3.1408874106383724 12.594100205091701 0 0 0
616 1 -0.002306304310830242 2.963829029463085 4.108670914545585 13.8652259953928 0 0 0
617 3 0.2055893637156333 3.4862664899446627 3.195294531224048 13.953698432604433 0 0 0
32 1 -0.1468161405104641 0.7984425007529568 0.04911379455746123 8.397529086817821 0 0 0
33 3 0.203989178553163 1.593575182190462 7.478005225044138 8.401251835496748 0 -1 0
606 3 0.1975934479099934 3.8119019386736057 4.657705287237319 8.467547270388788 0 0 0
34 3 0.1914696867848014 1.273233756035549 0.9847296705607688 8.425603386241697 0 0 0
622 1 -0.1557484676951406 2.963003408321505 4.009055958364289 16.65746261652394 0 0 0
639 2 -0.1476569793246902 1.5081082625579731 2.809140094320368 23.539002283531868 0 0 0
624 3 0.2048045041321915 3.628723769361185 4.813150105553928 16.665133529587184 0 0 0
53 1 0.0753107843925572 4.436016892685686 0.03049297143774495 17.986064453862262 -1 0 0
54 2 -0.1547960196069582 3.541226534745003 1.1228753138727616 18.027285817005616 0 0 0
55 2 -0.148893493305639 3.6911574020575757 7.054950089059538 17.93951361952026 0 -1 0
56 1 -0.1453924110263685 0.7422453525090813 0.03146922611381857 19.287345562622406 0 0 0
57 3 0.2017753565405658 1.4556794969727895 7.304264302488865 19.245321301351005 0 -1 0
58 3 0.1889944428890216 1.3856522193687566 0.908112509545687 19.4494066238564 0 0 0
59 1 0.1186257894451173 4.381882809407026 8.044773028112907 20.635421092625624 -1 -1 0
60 2 -0.1481580544562514 3.437780283448248 0.957833789833751 20.691082570054355 0 0 0
61 2 -0.1407852806983292 3.699786805250604 6.851613613501669 20.64332686942591 -1 -1 0
62 1 0.003090149109423509 0.729621683314579 0.016106930178528676 22.01257007603057 0 0 0
63 2 -0.1374284049494453 1.8008151930685716 7.096149046538709 22.031933915002185 0 -1 0
64 3 0.2066968935000153 1.1690675563769586 0.9551290766207648 21.965732368229613 0 0 0
65 1 0.1330662404453598 4.343870456012231 8.053116363549723 23.404031934844998 -1 -1 0
66 2 -0.1460157722581869 3.3652133172957814 0.8410884152651635 23.405302663440164 0 0 0
67 2 -0.1399101609819735 3.749245633462931 6.781936730048387 23.47803141398536 0 -1 0
636 3 0.2153299161195683 3.5240881245886624 4.859139712352587 22.01990772099481 0 0 0
638 2 -0.1416320589690797 1.4406987468874175 5.041970115052147 23.480992367092426 0 0 0
637 1 0.1228218719673321 2.2613092100547916 3.9812431403104642 23.489864122095888 0 0 0
625 1 0.06937423714655427 2.1675908428294197 4.034012779271327 17.99167241386747 0 0 0
626 2 -0.1479063536860454 1.5200911292789527 5.266754118878486 17.971339250189786 0 0 0
627 2 -0.1538403251222253 1.22926079547786 3.0096562990992783 17.993038315503252 0 0 0
628 1 -0.1467788318691422 2.9218146553675473 3.890627831171703 19.357440433016045 0 0 0
629 3 0.1907172339602074 3.5200138640678835 3.0322666871456696 19.197736094603023 0 0 0
630 3 0.1967245143592167 3.6542369490753046 4.711582486725278 19.40250129478597 0 0 0
631 1 0.1226820941368963 2.1954412150282976 3.8104607475902292 20.741543946579252 0 0 0
632 2 -0.1424340219310432 1.1593665343047521 4.756770072306673 20.76228420148205 0 0 0
633 2 -0.1487628983227144 1.5773573207211387 2.6002435464713964 20.71514048156306 0 0 0
634 1 -0.001962427813806443 2.982517264618348 3.9657839352092403 22.053889350130998 0 0 0
635 2 -0.1449582788199174 4.13021813001723 2.9871032583103125 22.05563704242176 -1 0 0
50 1 -0.14928085783064 0.8009530925703731 0.11425447703915995 16.576776621229055 0 0 0
623 3 0.1891019154526098 3.462779139294111 3.08342707944962 16.63529973372046 0 0 0
51 3 0.2003144431794349 1.4946644909153497 7.460933156929252 16.500522923010664 0 -1 0
52 3 0.1928192720433241 1.3846866962590805 0.9857201341940829 16.712384342915662 0 0 0
69 3 0.2044137094051393 1.5115830821050755 7.570051910059632 24.787485848765044 0 -1 0
68 1 -0.1486439570194498 0.6807890101187475 0.11586132417201538 24.719280992337907 0 0 0
655 1 0.1149452659026118 2.127456032948161 4.341769371982885 31.59030234697753 0 0 0
71 1 0.07233554086984677 0.010448967915227758 0.04305297321986211 26.13155958132843 0 0 0
72 2 -0.1531911150672358 3.5908490536726867 1.1109764479667679 26.19647390896039 0 0 0
73 2 -0.1484409144879108 3.6569625560660213 7.01382391189768 26.1700221227925 0 -1 0
74 1 -0.1453495211811959 0.8418036730263351 0.09159894557659473 27.546905833769394 0 0 0
75 3 0.2002498669728955 1.5185104718197082 7.44352988462085 27.612323991372758 0 -1 0
76 3 0.1953705747273454 1.492967111774402 0.9839716296251497 27.485292211126843 0 0 0
77 1 0.1270249789567556 4.436307302824442 0.18444500075316322 28.824286159236202 -1 0 0
78 2 -0.1446791839738807 3.770091452173022 1.3731633850579164 28.849392629362974 -1 0 0
79 2 -0.1450883941636619 3.50152092701095 7.347403518183501 28.74054930731882 0 -1 0
80 1 0.0008994574403309117 0.8216456564635959 0.03214080191234436 30.256221922981556 0 0 0
81 3 0.2103891207974256 1.2126329131451337 7.214858980973247 30.25717617223217 0 -1 0
82 2 -0.1409455416326605 1.8973605297224068 0.9844108968200103 30.279927429968257 0 0 0
83 1 0.1263864806876804 4.423859021022917 0.1355989703169164 31.592292564309602 -1 0 0
84 2 -0.1430014450109636 3.787825413461307 1.3771441669779483 31.612470740004532 0 0 0
85 2 -0.1463577367644154 3.4432049696204308 7.259761166825746 31.60360224639411 0 -1 0
654 2 -0.1424867281575457 4.006120838966128 5.208972050443219 30.29299087863988 -1 0 0
656 2 -0.1466049382487019 1.423809893807601 5.594671520224647 31.621536225832465 0 0 0
657 2 -0.1437525335958617 1.1805385377347692 3.3291357320772788 31.6444481872007 0 0 0
643 1 0.07574530831766257 2.290135717053924 4.213947724105534 26.12157134984448 0 0 0
644 2 -0.1487219740105204 1.5589111149989257 5.364731748795815 25.991922437028506 0 0 0
645 2 -0.1541531412879733 1.3931289281307828 3.1247199033399577 26.214216885257493 0 0 0
646 1 -0.1510229351342502 3.074613159060453 4.263441649339336 27.563230269502753 0 0 0
647 3 0.192080943367199 3.6170122015994095 3.3512818336997 27.590872954702363 0 0 0
648 3 0.203077759357139 3.766432331891336 5.003053604389328 27.45089198974985 -1 0 0
649 1 0.1237777101416114 2.1907101736106696 4.332564656108637 28.79459467171169 0 0 0
650 2 -0.144757683412933 1.497224623340068 5.53643868388405 28.72333006546851 0 0 0
651 2 -0.145728199928878 1.3255917646173214 3.281397740364543 28.706071003788317 0 0 0
652 1 -0.00211063078463221 2.939408434005029 4.238754037683071 30.27159609447499 0 0 0
653 3 0.2094819870802012 3.4564918405302523 3.2988131857118663 30.33377607478874 0 0 0
640 1 -0.1490629469962296 3.1066789842487794 4.0691045934081735 24.82999358193259 0 0 0
641 3 0.1912912746488625 3.664875217859879 3.178262193703592 24.859223678108602 -1 0 0
70 3 0.1892483142840356 1.1691631099580733 1.0327227739849572 24.73176937299113 0 0 0
642 3 0.2016555325682214 3.8654211340274567 4.81523006357378 24.764116127984625 0 0 0
659 3 0.1970207110755104 3.538992264595381 3.3835608471116063 32.77079897469974 0 0 0
660 3 0.1950860340085611 3.4957748031585334 5.113317811755422 33.0639488403695 0 0 0
675 2 -0.1474961130930803 1.4373135222583113 2.728428294927296 39.97039826708868 0 0 0
658 1 -0.1481737456935358 2.8993686990164482 4.265486389695345 32.933367596799215 0 0 0
89 1 0.07084049083943672 4.343221126645242 0.036284141117711596 34.29714397811357 -1 0 0
90 2 -0.1502160220473581 3.5807762501087064 1.2285165978956827 34.219196483635535 -1 0 0
91 2 -0.1522473178137544 3.4442550786403814 7.096260078064989 34.30408439377455 0 -1 0
92 1 -0.1515514519202429 0.6529842624683418 8.109112810723659 35.67895216663982 0 -1 0
93 3 0.197643572503127 1.4166486463074688 7.340195592524145 35.55494561108405 0 -1 0
94 3 0.1946256974740736 1.2006802661026235 0.841158972493784 35.79728533986845 0 0 0
95 1 0.1268597192808646 4.389710690600312 7.89388489667518 37.017447836180565 -1 -1 0
96 2 -0.1443223468518711 3.2920525121024906 0.5588703439632238 37.072232662729 0 0 0
97 2 -0.1413725143942691 3.8458655811660343 6.576284922498377 36.94755382781498 -1 -1 0
98 1 0.008486172715567451 0.6914302403850077 8.028509076730238 38.43994471987774 0 -1 0
99 2 -0.137663298659344 1.8663912192783316 7.1654311287512655 38.397305960707016 0 -1 0
100 3 0.2067198714846959 1.0525911638516416 0.9043633481197867 38.508592614994974 0 0 0
101 1 0.1275737712499657 4.340923164548807 7.861421558103336 39.813006983145556 -1 -1 0
102 2 -0.1455339018845877 3.2495712602311984 0.6270294764434547 39.79415089614717 0 0 0
103 2 -0.1406405125009242 3.8174036836039065 6.576757778558566 39.909488987801765 -1 -1 0
673 1 0.1221800535932896 2.2003040522684647 3.911095270448527 39.84610622213178 0 0 0
674 2 -0.1418581737290298 1.3271796740515391 4.8880612693403815 39.83474146223661 0 0 0
86 1 -0.1460292409542914 0.701890791445054 8.137451196983637 32.94091867300213 0 -1 0
661 1 0.07188538474761839 2.163465266020218 4.140413042860063 34.309358186616414 0 0 0
662 2 -0.1517159651086737 1.3931573907029997 5.225294119572328 34.44795071377756 0 0 0
663 2 -0.1502854632188834 1.2952530968198033 3.0704935070038633 34.19612635709203 0 0 0
664 1 -0.1463229625530073 2.9280242348651804 3.99557987825863 35.67472485647783 0 0 0
665 3 0.1954066246803506 3.5909274316877804 3.1401940195562035 35.597049743406046 0 0 0
666 3 0.1961086991599282 3.5658224707621886 4.843564621961465 35.648552558698256 0 0 0
667 1 0.1193218086748706 2.2053246907542317 3.8326003083201146 37.033097486466396 0 0 0
668 2 -0.1419190980777094 1.2617136243987108 4.8112990963835305 37.03404735678044 0 0 0
669 2 -0.1451483174072193 1.4577910146217479 2.6163125663483293 36.96750187326244 0 0 0
670 1 -0.003120064399883073 2.960172198140701 3.810491958347699 38.45186687688487 0 0 0
671 2 -0.1428028623609244 3.962078107261116 2.7473813326010728 38.49454794240617 -1 0 0
672 3 0.2137946902757784 3.5497407205410094 4.651994578062053 38.43817457897333 0 0 0
87 3 0.1891995159893483 1.2189032213860966 7.218389234525447 32.91823889160632 0 -1 0
88 3 0.1982876465356472 1.5694937925686836 0.6824048312609222 33.00521692067659 0 0 0
678 3 0.2004157078695615 3.6495591819450444 4.833447188827168 41.15110805722875 0 0 0
691 1 0.1258071530057058 2.153396869741229 4.075778053160751 47.96876272857434 0 0 0
693 2 -0.1419712113107566 1.2177030071216304 3.0430072339479066 48.00450334849649 0 0 0
107 1 0.06918371857421882 4.363076863697783 0.03210885372732855 42.54818556634592 -1 0 0
108 2 -0.1540216433007993 3.64587687556231 1.1573346401955484 42.59555906941687 0 0 0
109 2 -0.1499132037640416 3.4575987791034284 7.132117639921789 42.5627800530142 0 -1 0
110 1 -0.1500097538515509 0.7514646853782126 8.091408297752835 43.904449827167554 0 -1 0
111 3 0.1972830451796407 1.366493337946347 7.229517798827329 43.92968438291989 0 -1 0
112 3 0.1964973158271034 1.3993095135381277 0.7899740113118935 43.94042953188467 0 0 0
113 1 0.121125971751483 4.42186256550826 0.02824566569756475 45.25985409602759 -1 0 0
114 2 -0.144557637919537 3.770061675223474 1.2383178069022118 45.25359591475803 -1 0 0
115 2 -0.1443642742400845 3.443612070918754 7.127544900702987 45.2872865586384 0 -1 0
116 1 0.002318071210221795 0.7680415187275571 8.05644860983734 46.6358521077891 0 -1 0
117 3 0.2105339233402088 1.2676998655452159 7.124849472704724 46.575275974926 0 -1 0
118 2 -0.1399839330693962 1.9087965109277878 0.9287692931884916 46.576542397942944 0 0 0
119 1 0.1312715482194351 0.03654859416578806 8.140329251553183 48.00107601391239 0 -1 0
120 2 -0.1411639481579784 3.8499402747059484 1.2463430811777938 48.022939364455006 -1 0 0
121 2 -0.1451889012710423 3.490673774167295 7.162840145744997 47.93288294535128 0 -1 0
676 1 -0.1503190652716803 2.9672706559138207 4.0224144000965385 41.188065077486094 0 0 0
104 1 -0.1444460985371312 0.6541560914425558 8.085092108262767 41.115755313379076 0 -1 0
692 2 -0.1458170676696575 1.4499632830265952 5.26033216051354 48.01478396970498 0 0 0
679 1 0.07458793217097354 2.100564481542208 4.0508508700571655 42.471400418688766 0 0 0
680 2 -0.1504632479843115 1.3359030562107597 5.1951551075600015 42.49931485342983 0 0 0
681 2 -0.1546715950196401 1.2134247560912692 3.0474223871816344 42.41052287269542 0 0 0
682 1 -0.1528816733426915 2.9380648573948833 3.936869913190716 43.84257382332599 0 0 0
683 3 0.1921203764180903 3.4843053065788574 3.017591121537373 43.87431301241091 -1 0 0
684 3 0.1992846633200453 3.6575046486005607 4.756551786484572 43.77334772010059 -1 0 0
685 1 0.1193131672681429 2.150614855678419 4.108211108945682 45.11274566930552 0 0 0
686 2 -0.1449035147191532 1.4531694018104244 5.334558424309759 45.05423859486636 0 0 0
687 2 -0.1452874591116259 1.1698386835984091 3.1534878347128172 45.1133119553 0 0 0
688 1 0.002716157539805589 2.900474146997705 4.0440577735604055 46.572266474754215 0 0 0
689 3 0.2126799892751917 3.4003199069715984 3.142674900639047 46.50805259864019 0 0 0
690 2 -0.1414703138542788 4.000265039061091 4.996503273755847 46.60723292136932 -1 0 0
677 3 0.1911478140556153 3.5279943620870617 3.1474786545352433 41.34209489526254 0 0 0
105 3 0.2012665235443741 1.484981764072688 7.371935074812513 41.25774815307337 0 -1 0
106 3 0.1902002088771997 1.1262135558301836 0.9072820199247433 41.0912227413047 0 0 0
122 1 -0.1469261981032394 0.8352053196797756 7.936572009713363 49.36705615910814 0 -1 0
710 2 -0.1423925159747669 1.249401500926705 4.8620599955601795 56.252795189235826 0 0 0
124 3 0.2058685392623774 1.5980207181682142 0.545945130962194 49.46211631379055 0 0 0
125 1 0.07337576600214381 4.422525140782696 7.984837765714192 50.70205268964434 -1 -1 0
126 2 -0.1485442454304823 3.6445891537415527 0.9585918738798854 50.57894686633965 0 0 0
127 2 -0.1540874172053531 3.5515195718528116 6.898898657042421 50.587992490092745 0 -1 0
128 1 -0.1475162755876209 0.7092854140798976 7.880746031812531 52.10870248627245 0 -1 0
129 3 0.1922963782685499 1.3825171707038364 7.063190753871509 52.00870960826248 0 -1 0
130 3 0.1973578179526317 1.3718702413720814 0.601567356096321 52.268501991520466 0 0 0
131 1 0.1118170471424028 4.316756952979247 7.701386914823513 53.37311229770434 -1 -1 0
132 2 -0.1457521202593262 3.351589215129632 0.5382542660683797 53.28660157517426 0 0 0
133 2 -0.1476887258169365 3.6773117459088116 6.4745642965205095 53.255135742914476 0 -1 0
134 1 -0.004501946648811797 0.6827029707983487 7.834247346073561 54.754816502028234 0 -1 0
135 2 -0.1422938071397105 1.7680493193091813 6.919659176786683 54.79411892036802 0 -1 0
136 3 0.203527682634635 0.9545956893861199 0.7311547755316312 54.810617707954975 0 0 0
137 1 0.1144578095672387 4.395394708328205 7.768897824836439 56.19293832597905 -1 -1 0
138 2 -0.1455890733098825 3.40237550364735 0.6344781089240566 56.20734032506829 0 0 0
139 2 -0.1422160506839646 3.769045670750126 6.509921805035578 56.260627939020075 -1 -1 0
694 1 -0.1465345494275873 2.9127009543659086 3.9723148965341437 49.295611519336305 0 0 0
711 2 -0.1451463125210845 1.4490553319735229 2.652377664221498 56.2243009920426 0 0 0
696 3 0.1922437556091025 3.5068568863907745 4.850532309537701 49.42506769217789 -1 0 0
697 1 0.07562756006589838 2.1302860786152973 3.8687945026792034 50.64415870635262 0 0 0
698 2 -0.1537690850863151 1.127007793036882 4.87766292606899 50.611142447447364 0 0 0
699 2 -0.1481145392539179 1.414237081586424 2.723944676467426 50.5518614137064 0 0 0
700 1 -0.1499982799708844 2.9690813342386635 3.8897367470698008 52.01222244821232 0 0 0
701 3 0.2030410579531396 3.6924162460821544 3.139776463977584 52.011701607190396 -1 0 0
702 3 0.189793499677413 3.498957486989869 4.847585871297223 52.013279090391265 0 0 0
703 1 0.1173175525182141 2.1756206784227636 3.763491493256011 53.32634657416433 0 0 0
704 2 -0.1466734474991207 1.1509354106626557 4.683889610580507 53.28774055994431 0 0 0
705 2 -0.1443174776169479 1.6025333618436703 2.482223153120976 53.32319775104539 0 0 0
706 1 0.001107545749094808 2.916569301924132 3.903203232467892 54.78963845447785 0 0 0
707 2 -0.1421842856444146 4.115093393450742 3.0438953119494556 54.70872356287209 -1 0 0
708 3 0.2116340346624183 3.286932031924905 4.889635058745189 54.738203830524746 0 0 0
709 1 0.1199298195044349 2.199536104876502 3.798679377558382 56.17438102103942 0 0 0
123 3 0.1919825686035222 1.2307232923150968 6.967665771843232 49.347727585665794 0 -1 0
695 3 0.2034781032522019 3.606492667582708 3.174785929902067 49.24608383998415 0 0 0
140 1 -0.1430616487707044 0.845585568714807 7.952995214957492 57.39146896175459 0 -1 0
141 3 0.2076099107577671 1.6128776623211418 7.224439954434824 57.446286075565084 0 -1 0
713 3 0.1933138418062776 3.55069161400211 2.840613750228216 57.59442984489905 0 0 0
143 1 0.08468951496944595 0.08645412269318443 7.89329243393116 58.90934558376707 0 -1 0
144 2 -0.1522341161232014 3.704054609699766 0.7808586072766129 58.881358368578404 -1 0 0
145 2 -0.1477505752146092 3.7210408818670615 6.74257411383599 58.94481951071848 0 -1 0
146 1 -0.1570849733232933 0.8219366228498933 7.900839870016872 60.24998159205647 0 -1 0
147 3 0.1947509158620757 1.4325761122926752 7.025536858512011 60.33934845108144 0 -1 0
148 3 0.1852153050631991 1.4710513491864623 0.5763548804271773 60.31661194550345 0 0 0
149 1 0.0795614238924067 4.365134333037938 7.97012409044268 61.545345624473576 -1 -1 0
150 2 -0.1524977984578371 3.4815449958777784 0.9311424160876683 61.461767874231775 0 0 0
151 2 -0.1490520786368454 3.606372078848019 6.812765556539651 61.60323194711649 0 -1 0
152 1 -0.1488614706691636 0.6534160615242391 8.130117544193329 62.9136348003955 0 -1 0
153 3 0.1908840291437511 1.4075958856242163 7.311099724977856 62.913361631187236 0 -1 0
154 3 0.1844413647856644 1.2137462002896255 0.9186719081504993 62.87169830585389 0 0 0
155 1 0.08399306144155183 4.292260645655087 8.066080659188234 64.23547827667687 -1 -1 0
156 2 -0.152046044424775 3.3780780159103516 0.9588939774512635 64.16394823036399 0 0 0
157 2 -0.1488559334287758 3.564139308095084 6.915275843863998 64.24714361429986 0 -1 0
712 1 -0.139783407952426 3.0496099308941176 3.790535813827706 57.51424440486693 0 0 0
714 3 0.2038098299902049 3.8576998135264806 4.51847786732155 57.427142744629805 0 0 0
729 2 -0.1520633136593284 1.162979076845211 2.983788586126502 64.29536744850729 0 0 0
715 1 0.08307010128411858 2.3374217311316485 3.905870666893557 58.8722488847972 0 0 0
716 2 -0.1474958434884002 1.542308043275467 5.0650019300760025 58.844948868300015 0 0 0
717 2 -0.1520707369110663 1.4472712320064005 2.8614862766899556 58.94717967118251 0 0 0
718 1 -0.156971044449773 3.0930524341620633 3.930082236198289 60.26068776656225 0 0 0
719 3 0.1855078101712861 3.67665183196219 3.0727725837498587 60.344365905445926 0 0 0
720 3 0.1939288878852575 3.7843980914320845 4.704971288104441 60.22940521948499 -1 0 0
721 1 0.07971332120764568 2.1954383204784476 4.051275141894975 61.58741519548587 0 0 0
722 2 -0.1488801267956649 1.3968218186367543 5.16807790057285 61.478935279336625 0 0 0
723 2 -0.1521174957318464 1.2985922139683381 2.987123378743492 61.531681741680636 0 0 0
724 1 -0.1555654155419966 2.8945625210463675 4.034167444076112 62.99077689905517 0 0 0
725 3 0.1847223640076413 3.545442607489625 3.2013245905025487 63.05219912416101 0 0 0
726 3 0.1955598272197999 3.4730116970535727 4.870637142752637 62.88890896460892 0 0 0
727 1 0.07786984325180968 2.041395282417299 4.054643712621671 64.33342925449314 0 0 0
728 2 -0.1485568520852951 1.2616426021617777 5.194703572183367 64.33154277839452 0 0 0
142 3 0.1908083174832804 1.3736149653391982 0.7549834157362282 57.343020834425126 0 0 0
158 1 -0.1552093651463134 0.6096130426304586 8.124069123689477 65.64620063734053 0 -1 0
159 3 0.189197961730845 1.3416561630674044 7.3115329155680495 65.6691137105178 0 -1 0
732 3 0.1903229867047911 3.515612706528001 4.77505436606238 65.71539583194104 0 0 0
161 1 0.07798076001264059 4.268237929009567 8.04473264490018 66.99714646788809 -1 -1 0
162 2 -0.1510619741723541 3.380507128186258 0.967289551634267 67.07144319189761 0 0 0
163 2 -0.1504598950463193 3.543871217903945 6.893112846000331 66.95490038986705 0 -1 0
164 1 -0.1455823261487484 0.6424273847746439 8.016485250682617 68.36972060493646 0 -1 0
165 3 0.1987181150523659 1.3051942348998122 7.162748244154197 68.34772530127593 0 -1 0
166 3 0.1977890034371682 1.2234596907582995 0.744932852456356 68.39386547673263 0 0 0
167 1 0.1226265075965943 4.324916056384605 7.855059471041644 69.7049009807363 -1 -1 0
168 2 -0.1434029282272243 3.334528495360758 0.6926670847138369 69.67999941970017 0 0 0
169 2 -0.1456116984265169 3.636170004120802 6.662254578708886 69.59255345317396 -1 -1 0
170 1 -0.006610985376334807 0.7076722092232707 7.942804879347923 71.07423536065787 0 -1 0
171 2 -0.1438237394361536 1.754546409239091 6.998780870413974 71.02854938724136 0 -1 0
172 3 0.2114786461499199 1.1917608393568278 0.7636702919025306 71.08803395130933 0 0 0
173 1 0.1131773917134994 4.341730558986004 7.816022382964231 72.4379442154065 -1 -1 0
174 2 -0.143564432146452 3.364995411376186 0.6939053971953608 72.48608990759216 0 0 0
175 2 -0.1470309406772619 3.6723354822201846 6.6155558605094065 72.5111590344523 -1 -1 0
730 1 -0.1571586566399436 2.753984636325236 4.006024662989552 65.74316834746536 0 0 0
160 3 0.1821032346569083 1.2024628101525918 0.885511372882295 65.63030033523353 0 0 0
747 2 -0.1430303124453354 1.5259804246776167 2.570594433729014 72.62194116168062 0 0 0
733 1 0.07549512928993385 1.9911057197094117 4.016673671650949 67.09401952768746 0 0 0
734 2 -0.1498224091193361 1.1780163486856212 5.126785703019208 67.1194168038409 0 0 0
735 2 -0.1506632357539168 1.1382974097427894 2.9303279809551785 67.12242442829319 0 0 0
736 1 -0.1476511122565189 2.7969213052324404 4.005307517368162 68.4695950249621 0 0 0
737 3 0.2002994946096642 3.607970918886772 3.2903683392799437 68.43041439458386 -1 0 0
738 3 0.1957720019776543 3.266602336001321 4.91694429090368 68.4888717493403 0 0 0
739 1 0.1229963178633136 2.054679995984854 3.8236904439766417 69.82657066229011 0 0 0
740 2 -0.1443545612292084 0.9492460236904215 4.6918843793071865 69.9021693420925 0 0 0
741 2 -0.1422061554210022 1.5347130535498643 2.555131720084895 69.8222220895715 0 0 0
742 1 0.0008466693637042399 2.8539060071190394 3.9588379848644646 71.18641721792991 0 0 0
743 2 -0.1399582143547553 4.004407033178017 2.9671606753255486 71.1239217837829 -1 0 0
744 3 0.207818986120584 3.26322600223804 4.908540204323634 71.08009049448395 0 0 0
745 1 0.1220291012459671 2.151514302770118 3.8060270722958003 72.5974423538516 0 0 0
746 2 -0.1472467689862993 1.1285077323838002 4.748515740102222 72.64325421039028 0 0 0
731 3 0.1824676895377166 3.275569506330437 3.0744009390809888 65.74219995136424 0 0 0
176 1 -0.1479469370543338 0.7028767850702262 7.93094802476971 73.7509294968187 0 -1 0
177 3 0.1964418563010291 1.2818544324421666 7.0426310831310435 73.78476038307687 0 -1 0
178 3 0.1998508933315233 1.362332690245912 0.6141829646765319 73.53899175526 0 0 0
179 1 0.08181031772124336 4.420632307288924 8.062908271993908 75.15635332465308 -1 -1 0
180 2 -0.1486193183005385 3.6881050945213065 1.1289334058957303 75.20450939696165 0 0 0
181 2 -0.1520896359205038 3.476384412717727 7.045979892335045 75.22553501526951 0 -1 0
182 1 -0.1494947569419798 0.7930245968311584 7.939496369997172 76.49622231063006 0 -1 0
183 3 0.1950472386648269 1.3776542059604142 7.047821936819384 76.50987365082277 0 -1 0
184 3 0.2021581050708229 1.4471240962407224 0.613998612483714 76.5365218622006 0 0 0
185 1 0.1140634026218812 0.11031644156351997 8.093230487701884 77.88453115723654 0 -1 0
186 2 -0.1443248164947421 3.9140961119477646 1.197637974108877 77.79548126971603 0 0 0
187 2 -0.1439882421334827 3.4893319132746177 7.156340383612709 77.99500910921985 0 -1 0
188 1 0.004236109528103833 0.7864601188271965 0.00904979659267724 79.32771766232531 0 0 0
189 3 0.2112882106017253 1.3241025731668292 7.221980741271061 79.33841242110103 0 -1 0
190 2 -0.1423730231415811 1.864318565801708 1.0212385659372862 79.35609305815399 0 0 0
191 1 0.1183408563688747 4.410285726965382 0.0395599016016222 80.6640374374254 -1 0 0
192 2 -0.1462293436365037 3.800628598129519 1.2883267877108013 80.71421575460778 -1 0 0
193 2 -0.1436744422368738 3.420921609268831 7.209140844790599 80.64805719014836 0 -1 0