LAMMPS data file via write_data, version 2 Aug 2023, timestep = 0, units = real

1144 atoms
3 atom types

0 4.446765 xlo xhi
0 8.148016 ylo yhi
0 261.127364 zlo zhi

Masses

1 12.0107
2 18.998404
3 1.00794

Atoms # charge

14 1 0 0.859238 7.866895 0.246535 0 -1 0
15 3 0 1.466391 7.003639 0.181413 0 -1 0
16 3 0 1.50842 0.59297 0.276993 0 0 0
17 1 0 0.03967 7.8259050000000006 1.601023 0 -1 0
18 2 0 3.698929 0.744007 1.605261 -1 0 0
19 2 0 3.685641 6.726312 1.573872 0 -1 0
20 1 0 0.765536 7.780014 2.965946 0 -1 0
21 3 0 1.384212 6.875223 3.019949 0 -1 0
22 3 0 1.427419 0.471325 3.058625 0 0 0
23 1 0 4.402552 7.743654 4.296497 -1 -1 0
24 2 0 3.512728 0.631414 4.22994 0 0 0
25 2 0 3.613395 6.6332130000000005 4.223104 0 -1 0
26 1 0 0.689564 7.809051 5.751896 0 -1 0
27 2 0 1.740413 6.870357 5.864047 0 -1 0
28 3 0 1.217372 0.560871 5.736966 0 0 0
29 1 0 4.291577 7.821689 7.109731 -1 -1 0
30 2 0 3.373429 0.682034 6.993279 0 0 0
31 2 0 3.627996 6.624569 7.258363 0 -1 0
586 1 0 3.075808 3.986546 0.329929 0 0 0
587 3 0 3.750173 3.154759 0.237048 -1 0 0
588 3 0 3.684407 4.921834 0.446341 0 0 0
589 1 0 2.248446 3.790401 1.64669 0 0 0
590 2 0 1.249941 4.793993 1.616551 0 0 0
591 2 0 1.582856 2.558887 1.561522 0 0 0
592 1 0 2.877901 3.873461 3.080249 0 0 0
593 3 0 3.634226 3.111205 3.050813 0 0 0
594 3 0 3.38743 4.806707 3.198647 0 0 0
595 1 0 2.078314 3.744977 4.35609 0 0 0
596 2 0 1.024042 4.622404 4.272731 0 0 0
597 2 0 1.555693 2.426148 4.322014 0 0 0
598 1 0 2.870936 3.901037 5.782813 0 0 0
599 2 0 3.917749 2.923725 5.774863 -1 0 0
600 3 0 3.272358 4.863455 5.880123 0 0 0
601 1 0 2.124266 3.802297 7.16447 0 0 0
602 2 0 1.145672 4.747765 7.205692 0 0 0
603 2 0 1.442602 2.56504 7.233255 0 0 0
32 1 0 0.702242 7.98313 8.384656 0 -1 0
33 3 0 1.36255 7.131855 8.33756 0 -1 0
34 3 0 1.276581 0.737876 8.181892 0 0 0
35 1 0 4.388314 8.004747 9.793825 -1 -1 0
36 2 0 3.486396 0.912656 9.827569 0 0 0
37 2 0 3.668498 6.8589210000000005 9.861978 0 -1 0
38 1 0 0.787709 8.109823 11.112679 0 -1 0
39 3 0 1.459641 7.20421 11.10163 0 -1 0
40 3 0 1.438901 0.843181 11.06451 0 0 0
41 1 0 0.010735 0.064787 12.433068 0 0 0
42 2 0 3.641575 1.250816 12.360372 0 0 0
43 2 0 3.563671 7.155666 12.432771 0 -1 0
44 1 0 0.781846 0.051336 13.86531 0 0 0
45 3 0 1.260375 7.205513 13.776642 0 -1 0
46 2 0 1.823671 1.102771 13.876523 0 0 0
47 1 0 0.007326 0.072127 15.233539 0 0 0
48 2 0 3.828024 1.289061 15.372898 -1 0 0
49 2 0 3.436776 7.2591540000000006 15.154302 0 -1 0
604 1 0 2.909629 3.894902 8.479722 0 0 0
605 3 0 3.471321 2.92509 8.490974 0 0 0
606 3 0 3.638405 4.747737 8.38979 0 0 0
607 1 0 2.154347 3.98365 9.831318 0 0 0
608 2 0 1.428037 5.225147 9.883555 0 0 0
609 2 0 1.208438 2.981363 9.790969 0 0 0
610 1 0 2.981567 3.948577 11.170174 0 0 0
611 3 0 3.553982 3.050146 11.229571 0 0 0
612 3 0 3.662127 4.735436 11.124911 0 0 0
613 1 0 2.124204 4.165912 12.443082 0 0 0
614 2 0 1.548445 5.415919 12.342532 0 0 0
615 2 0 1.070761 3.247332 12.454857 0 0 0
616 1 0 2.921317 4.117725 13.857656 0 0 0
617 3 0 3.547419 3.254316 13.906282 0 0 0
618 2 0 3.993878 5.083738 13.877431 -1 0 0
619 1 0 2.159738 4.151143 15.247073 0 0 0
620 2 0 1.480722 5.331927 15.369026 0 0 0
621 2 0 1.193703 3.157432 15.239008 0 0 0
50 1 0 0.768987 7.924576 16.557099 0 -1 0
51 3 0 1.260312 6.988583 16.455082 0 -1 0
52 3 0 1.625265 0.43745 16.644127 0 0 0
53 1 0 4.444249 7.963161 17.90396 -1 -1 0
54 2 0 3.675332 0.940669 17.904635 0 0 0
55 2 0 3.56876 6.8739 17.977224 0 -1 0
56 1 0 0.781453 8.021842 19.34483 0 -1 0
57 3 0 1.456592 7.2385660000000005 19.332823 0 -1 0
58 3 0 1.229382 0.880249 19.480799 0 0 0
59 1 0 4.399168 7.900829 20.575428 -1 -1 0
60 2 0 3.39219 0.674818 20.499808 0 0 0
61 2 0 3.796371 6.662541 20.53415 -1 -1 0
62 1 0 0.733104 8.042693 22.045851 0 -1 0
63 2 0 1.741324 7.0738330000000005 22.149987 0 -1 0
64 3 0 1.169456 0.820964 22.019824 0 0 0
65 1 0 4.355495 7.990573 23.363161 -1 -1 0
66 2 0 3.366983 0.841911 23.446715 0 0 0
67 2 0 3.670344 6.773493 23.457135 0 -1 0
622 1 0 2.987674 4.019228 16.54125 0 0 0
623 3 0 3.549084 3.117923 16.532629 0 0 0
624 3 0 3.683741 4.781922 16.525697 0 0 0
625 1 0 2.198708 4.035282 17.886671 0 0 0
626 2 0 1.448951 5.166951 18.004603 0 0 0
627 2 0 1.270458 2.958254 17.909901 0 0 0
628 1 0 3.016781 3.930293 19.222663 0 0 0
629 3 0 3.650086 3.03206 19.163427 0 0 0
630 3 0 3.691673 4.712519 19.276468 0 0 0
631 1 0 2.291438 3.895407 20.575917 0 0 0
632 2 0 1.383577 4.9354 20.601133 0 0 0
633 2 0 1.545629 2.7451 20.533485 0 0 0
634 1 0 3.082725 3.898756 21.984416 0 0 0
635 2 0 3.987908 2.808339 21.917362 -1 0 0
636 3 0 3.553734 4.886416 22.051999 0 0 0
637 1 0 2.314478 3.875425 23.391815 0 0 0
638 2 0 1.261477 4.800866 23.395597 0 0 0
639 2 0 1.665144 2.613976 23.465983 0 0 0
68 1 0 0.647007 0.042011 24.716695 0 0 0
69 3 0 1.523658 7.563904 24.815551 0 -1 0
70 3 0 0.863695 1.024352 24.687739 0 0 0
71 1 0 4.257682 0.002448 26.065387 -1 0 0
72 2 0 3.465239 1.166131 26.075477 0 0 0
73 2 0 3.364143 7.0500240000000005 26.018684 0 -1 0
74 1 0 0.54284 8.128921 27.461583 0 -1 0
75 3 0 0.986589 7.195118 27.549237 0 -1 0
76 3 0 1.389936 0.703722 27.364585 0 0 0
77 1 0 4.2360180000000005 0.228525 28.820534 -1 0 0
78 2 0 3.739094 1.50566 28.759433 -1 0 0
79 2 0 3.156235 7.518335 28.835713 0 -1 0
80 1 0 0.567056 0.106876 30.156146 0 0 0
81 3 0 1.01979 7.26925 30.143998 0 -1 0
82 2 0 1.763963 0.960613 30.153323 0 0 0
83 1 0 4.273512 0.109989 31.605369 -1 0 0
84 2 0 3.662035 1.352828 31.701869 0 0 0
85 2 0 3.301124 7.300906 31.689043 0 -1 0
640 1 0 3.025818 4.123534 24.711797 0 0 0
641 3 0 3.8090640000000002 3.34293 24.81199 -1 0 0
642 3 0 3.3917 5.059018 24.549125 0 0 0
643 1 0 2.235789 4.158363 26.093339 0 0 0
644 2 0 1.520805 5.320686 26.056025 0 0 0
645 2 0 1.319608 3.101581 26.10202 0 0 0
646 1 0 3.017294 4.123053 27.48821 0 0 0
647 3 0 3.629205 3.247915 27.537768 0 0 0
648 3 0 3.700394 4.896262 27.448904 -1 0 0
649 1 0 2.216183 4.290338 28.787972 0 0 0
650 2 0 1.450113 5.464049 28.623172 0 0 0
651 2 0 1.234727 3.264546 28.812193 0 0 0
652 1 0 2.957605 4.337736 30.204506 0 0 0
653 3 0 3.538184 3.473622 30.227961 0 0 0
654 2 0 4.023752 5.295139 30.24735 -1 0 0
655 1 0 2.213923 4.267963 31.636133 0 0 0
656 2 0 1.474738 5.396034 31.764453 0 0 0
657 2 0 1.281669 3.216036 31.571124 0 0 0
86 1 0 0.643326 0.006702 32.938661 0 0 0
87 3 0 1.224356 7.294594 32.878299 0 -1 0
88 3 0 1.40377 0.797717 32.962268 0 0 0
89 1 0 4.378952 0.071922 34.349324 -1 0 0
90 2 0 3.704429 1.265679 34.404716 -1 0 0
91 2 0 3.433603 7.2267850000000005 34.297066 0 -1 0
92 1 0 0.701471 8.108189 35.737691 0 -1 0
93 3 0 1.195833 7.223897 35.695581 0 -1 0
94 3 0 1.387448 0.720396 35.767108 0 0 0
95 1 0 4.412764 7.915025 37.084654 -1 -1 0
96 2 0 3.420141 0.681602 37.056412 0 0 0
97 2 0 3.840787 6.663519 37.004985 -1 -1 0
98 1 0 0.729336 7.984916 38.514051 0 -1 0
99 2 0 1.815616 6.941692 38.440643 0 -1 0
100 3 0 1.240225 0.749254 38.551849 0 0 0
101 1 0 4.354497 7.8591750000000005 39.845579 -1 -1 0
102 2 0 3.282971 0.61054 39.798728 0 0 0
103 2 0 3.77895 6.557069 39.889004 -1 -1 0
658 1 0 2.977989 4.093881 32.925437 0 0 0
659 3 0 3.514681 3.253353 32.950951 0 0 0
660 3 0 3.617093 4.965617 32.913939 0 0 0
661 1 0 2.140055 4.181673 34.31269 0 0 0
662 2 0 1.346534 5.345706 34.271746 0 0 0
663 2 0 1.282965 3.117493 34.320141 0 0 0
664 1 0 2.965436 4.146725 35.600687 0 0 0
665 3 0 3.642752 3.24675 35.49799 0 0 0
666 3 0 3.545894 5.016214 35.677874 0 0 0
667 1 0 2.16913 3.909497 36.991023 0 0 0
668 2 0 1.117161 4.763509 37.068599 0 0 0
669 2 0 1.626067 2.639837 36.839885 0 0 0
670 1 0 2.948117 3.932766 38.326357 0 0 0
671 2 0 4.085303 2.972267 38.312943 -1 0 0
672 3 0 3.52214 4.788079 38.328637 0 0 0
673 1 0 2.186276 3.943168 39.718283 0 0 0
674 2 0 1.190116 4.892286 39.71447 0 0 0
675 2 0 1.588952 2.669816 39.837008 0 0 0
104 1 0 0.684746 8.101691 41.134686 0 -1 0
105 3 0 1.265579 7.269317 41.222885 0 -1 0
106 3 0 1.345029 0.752109 41.058118 0 0 0
107 1 0 4.273951 0.050252 42.501755 -1 0 0
108 2 0 3.539259 1.259656 42.520688 0 0 0
109 2 0 3.371357 7.156599 42.529782 0 -1 0
110 1 0 0.654214 0.075506 43.847644 0 0 0
111 3 0 1.200318 7.293538 43.957247 0 -1 0
112 3 0 1.334857 0.875617 43.827969 0 0 0
113 1 0 4.3147 0.172933 45.172501 -1 0 0
114 2 0 3.721119 1.380334 45.249431 -1 0 0
115 2 0 3.298946 7.3717820000000005 45.087566 0 -1 0
116 1 0 0.72513 8.026878 46.52432 0 -1 0
117 3 0 1.037405 6.9943670000000004 46.47046 0 -1 0
118 2 0 1.875769 0.678252 46.499396 0 0 0
119 1 0 4.40057 0.109946 47.892302 -1 0 0
120 2 0 3.888442 1.37018 47.939926 -1 0 0
121 2 0 3.335269 7.394551 48.008921 0 -1 0
676 1 0 3.026688 4.200783 40.996812 0 0 0
677 3 0 3.692915 3.380153 41.041025 0 0 0
678 3 0 3.57659 5.111326 40.991111 0 0 0
679 1 0 2.293336 4.140411 42.380377 0 0 0
680 2 0 1.463195 5.195406 42.44537 0 0 0
681 2 0 1.449531 3.052458 42.3601 0 0 0
682 1 0 3.127925 4.126483 43.757937 0 0 0
683 3 0 3.719501 3.283706 43.756416 -1 0 0
684 3 0 3.849429 4.936504 43.724641 -1 0 0
685 1 0 2.303135 4.199853 45.067069 0 0 0
686 2 0 1.447724 5.322771 44.969982 0 0 0
687 2 0 1.489585 3.110995 45.081519 0 0 0
688 1 0 2.979349 4.304549 46.530862 0 0 0
689 3 0 3.634657 3.539693 46.581409 0 0 0
690 2 0 3.919676 5.479709 46.520265 -1 0 0
691 1 0 2.202059 4.233559 47.89594 0 0 0
692 2 0 1.477124 5.389212 48.052301 0 0 0
693 2 0 1.241511 3.245542 47.848492 0 0 0
122 1 0 0.794447 8.12102 49.184031 0 -1 0
123 3 0 1.149756 7.14054 49.168992 0 -1 0
124 3 0 1.65528 0.654834 49.204196 0 0 0
125 1 0 4.424322 0.115301 50.503245 -1 0 0
126 2 0 3.675081 1.312967 50.3977 0 0 0
127 2 0 3.518082 7.193958 50.591406 0 -1 0
128 1 0 0.749526 0.170731 51.872949 0 0 0
129 3 0 1.414158 7.497713 51.813745 0 -1 0
130 3 0 1.355568 0.99397 51.814043 0 0 0
131 1 0 4.347615 8.125456 53.152897 -1 -1 0
132 2 0 3.34211 0.935977 53.143891 0 0 0
133 2 0 3.661706 6.901358 53.088876 0 -1 0
134 1 0 0.6695 0.034543 54.611161 0 0 0
135 2 0 1.84032 7.391215 54.586775 0 -1 0
136 3 0 1.107307 1.037712 54.582204 0 0 0
137 1 0 4.400364 8.046201 56.009082 -1 -1 0
138 2 0 3.450136 0.898415 56.075648 0 0 0
139 2 0 3.780214 6.816807 56.06347 -1 -1 0
694 1 0 3.007686 4.106794 49.223994 0 0 0
695 3 0 3.427737 3.112244 49.163448 0 0 0
696 3 0 3.777114 4.839883 49.227262 -1 0 0
697 1 0 2.164095 4.116082 50.53182 0 0 0
698 2 0 1.321128 5.213825 50.472014 0 0 0
699 2 0 1.32082 3.004981 50.55463 0 0 0
700 1 0 2.936181 4.213088 51.933121 0 0 0
701 3 0 3.712972 3.379259 51.9847 -1 0 0
702 3 0 3.499808 5.131018 52.027648 0 0 0
703 1 0 2.13643 4.153613 53.207446 0 0 0
704 2 0 1.278534 5.267531 53.315624 0 0 0
705 2 0 1.290036 3.040082 53.09819 0 0 0
706 1 0 2.898301 4.057996 54.652166 0 0 0
707 2 0 3.793684 2.943142 54.585123 -1 0 0
708 3 0 3.434804 4.952965 54.701651 0 0 0
709 1 0 2.088784 3.97818 56.013219 0 0 0
710 2 0 1.052624 4.94422 55.985685 0 0 0
711 2 0 1.426529 2.72797 56.032764 0 0 0
140 1 0 0.79036 8.107552 57.269714 0 -1 0
141 3 0 1.360654 7.261396 57.237532 0 -1 0
142 3 0 1.41082 0.768109 57.143467 0 0 0
143 1 0 0.058025 0.059063 58.678826 0 0 0
144 2 0 3.868862 1.270358 58.688376 -1 0 0
145 2 0 3.465364 7.2179210000000005 58.687631 0 -1 0
146 1 0 0.813093 8.056602 60.053311 0 -1 0
147 3 0 1.383998 7.147501 59.996985 0 -1 0
148 3 0 1.528854 0.742366 60.117337 0 0 0
149 1 0 0.025226 8.100603 61.368978 0 -1 0
150 2 0 3.651058 1.096855 61.358317 0 0 0
151 2 0 3.628069 6.959429 61.359312 0 -1 0
152 1 0 0.798211 8.075242 62.774154 0 -1 0
153 3 0 1.516691 7.328944 62.808254 0 -1 0
154 3 0 1.199309 0.902578 62.793992 0 0 0
155 1 0 4.362991 8.024626 64.079964 -1 -1 0
156 2 0 3.529063 0.952677 64.042057 0 0 0
157 2 0 3.606161 6.87322 64.040267 0 -1 0
712 1 0 2.887935 4.157666 57.288402 0 0 0
713 3 0 3.645954 3.39242 57.264252 0 0 0
714 3 0 3.422749 5.124132 57.197063 0 0 0
715 1 0 2.215074 4.053367 58.707963 0 0 0
716 2 0 1.275674 5.047119 58.739262 0 0 0
717 2 0 1.510502 2.844487 58.715761 0 0 0
718 1 0 3.086076 4.118162 59.988717 0 0 0
719 3 0 3.638624 3.217309 60.026597 0 0 0
720 3 0 3.7785520000000004 4.933102 59.891817 -1 0 0
721 1 0 2.297195 4.072674 61.38661 0 0 0
722 2 0 1.524889 5.212216 61.453066 0 0 0
723 2 0 1.381589 2.974201 61.380387 0 0 0
724 1 0 3.026564 3.979547 62.765087 0 0 0
725 3 0 3.583652 3.092818 62.676445 0 0 0
726 3 0 3.678322 4.804279 62.850221 0 0 0
727 1 0 2.172543 3.88754 64.090643 0 0 0
728 2 0 1.278391 4.900153 64.062413 0 0 0
729 2 0 1.452554 2.727974 64.077658 0 0 0
158 1 0 0.67747 8.005582 65.470554 0 -1 0
159 3 0 1.333348 7.140588 65.498288 0 -1 0
160 3 0 1.255308 0.757679 65.438021 0 0 0
161 1 0 4.369468 7.969915 66.839328 -1 -1 0
162 2 0 3.512766 0.866492 66.851035 0 0 0
163 2 0 3.57921 6.839653 66.853774 0 -1 0
164 1 0 0.701823 8.011604 68.23091 0 -1 0
165 3 0 1.483541 7.269338 68.243554 0 -1 0
166 3 0 1.239032 0.816021 68.240866 0 0 0
167 1 0 0.001453 7.912387 69.572049 0 -1 0
168 2 0 3.457586 0.760181 69.53054 0 0 0
169 2 0 3.7855410000000003 6.713364 69.55107 -1 -1 0
170 1 0 0.724458 8.016993 71.057879 0 -1 0
171 2 0 1.867054 7.195355 71.045977 0 -1 0
172 3 0 1.284738 0.747916 71.078454 0 0 0
173 1 0 0.012328 7.9009990000000005 72.465 0 -1 0
174 2 0 3.426615 0.703343 72.532114 0 0 0
175 2 0 3.865084 6.598874 72.481933 -1 -1 0
730 1 0 2.966806 3.965174 65.471099 0 0 0
731 3 0 3.507127 3.062756 65.512803 0 0 0
732 3 0 3.641572 4.833243 65.438255 0 0 0
733 1 0 2.18046 4.051814 66.818953 0 0 0
734 2 0 1.481645 5.237126 66.810154 0 0 0
735 2 0 1.184868 3.082061 66.811565 0 0 0
736 1 0 2.942884 3.985901 68.187846 0 0 0
737 3 0 3.7295380000000002 3.27255 68.137824 -1 0 0
738 3 0 3.363167 4.918227 68.306335 0 0 0
739 1 0 2.161545 3.746269 69.54764 0 0 0
740 2 0 1.060544 4.57333 69.562843 0 0 0
741 2 0 1.6889 2.498296 69.469784 0 0 0
742 1 0 2.866717 3.829055 70.935604 0 0 0
743 2 0 4.065448 2.845894 70.920226 -1 0 0
744 3 0 3.384482 4.783055 70.889468 0 0 0
745 1 0 2.125407 3.75129 72.30114 0 0 0
746 2 0 1.021131 4.609404 72.304231 0 0 0
747 2 0 1.693243 2.488571 72.472428 0 0 0
176 1 0 0.778322 8.043097 73.775849 0 -1 0
177 3 0 1.569073 7.331413 73.771781 0 -1 0
178 3 0 1.203706 0.843374 73.823071 0 0 0
179 1 0 4.371395 8.048604000000001 75.162097 -1 -1 0
180 2 0 3.399519 0.865618 75.122629 0 0 0
181 2 0 3.632227 6.856841 75.20344 0 -1 0
182 1 0 0.678594 0.08261 76.494504 0 0 0
183 3 0 1.393308 7.469826 76.58775 0 -1 0
184 3 0 1.268182 0.920537 76.311439 0 0 0
185 1 0 4.3525920000000005 0.175521 77.899165 -1 0 0
186 2 0 3.651595 1.345498 77.978732 0 0 0
187 2 0 3.411031 7.331837 77.83951 0 -1 0
188 1 0 0.705497 8.07646 79.25288 0 -1 0
189 3 0 0.966466 7.077326 79.19772 0 -1 0
190 2 0 1.862553 0.921704 79.318003 0 0 0
191 1 0 4.399757 0.038603 80.620868 -1 0 0
192 2 0 3.701769 1.272089 80.651466 -1 0 0
193 2 0 3.469858 7.189811000000001 80.689766 0 -1 0
748 1 0 2.899341 4.060624 73.620652 0 0 0
749 3 0 3.675419 3.322863 73.774363 0 0 0
750 3 0 3.392626 4.927431 73.470095 0 0 0
751 1 0 2.08109 4.178349 74.930021 0 0 0
752 2 0 1.338488 5.363777 74.819337 0 0 0
753 2 0 1.173787 3.178179 74.971889 0 0 0
754 1 0 2.895451 4.116304 76.3026 0 0 0
755 3 0 3.385312 3.144298 76.373353 0 0 0
756 3 0 3.687312 4.805012 76.382364 0 0 0
757 1 0 2.06891 4.18572 77.612349 0 0 0
758 2 0 1.350101 5.336605 77.550854 0 0 0
759 2 0 1.175822 3.153511 77.526397 0 0 0
760 1 0 2.848484 4.090366 79.013343 0 0 0
761 3 0 3.104741 3.082488 79.075617 0 0 0
762 2 0 4.004438 4.929234 78.95041 -1 0 0
763 1 0 2.188728 4.260207 80.466015 0 0 0
764 2 0 1.518371 5.505218 80.514157 0 0 0
765 2 0 1.145167 3.304115 80.567323 0 0 0
194 1 0 0.851477 8.078933 81.88708 0 -1 0
195 3 0 1.376428 7.099452 81.961083 0 -1 0
196 3 0 1.576401 0.682129 81.874281 0 0 0
197 1 0 0.167809 0.027967 83.301123 0 0 0
198 2 0 3.967547 1.280634 83.360743 -1 0 0
199 2 0 3.616893 7.257088 83.384923 0 -1 0
200 1 0 0.997396 8.059261 84.686236 0 -1 0
201 3 0 1.639499 7.182373 84.58562 0 -1 0
202 3 0 1.534283 0.806269 84.776669 0 0 0
203 1 0 0.146558 7.83477 85.921475 0 -1 0
204 2 0 3.59538 0.69201 85.981761 0 0 0
205 2 0 3.9783150000000003 6.578606000000001 85.798375 -1 -1 0
206 1 0 0.88003 7.897391 87.365933 0 -1 0
207 2 0 1.914602 6.856741 87.387447 0 -1 0
208 3 0 1.387382 0.750065 87.324891 0 0 0
209 1 0 0.186564 7.921932 88.794804 0 -1 0
210 2 0 3.779847 0.83618 88.855413 -1 0 0
211 2 0 3.8186970000000002 6.809913 88.928398 -1 -1 0
766 1 0 2.889189 4.217912 81.816454 0 0 0
767 3 0 3.389907 3.264705 81.897262 0 0 0
768 3 0 3.618809 5.04021 81.858667 0 0 0
769 1 0 2.110564 4.012017 83.215738 0 0 0
770 2 0 1.068933 4.927906 83.246063 0 0 0
771 2 0 1.570622 2.773535 83.139337 0 0 0
772 1 0 2.854846 4.070654 84.614002 0 0 0
773 3 0 3.660796 3.344562 84.528393 0 0 0
774 3 0 3.377144 5.04156 84.605643 0 0 0
775 1 0 2.188803 3.802693 85.957023 0 0 0
776 2 0 1.155538 4.700276 86.03102 0 0 0
777 2 0 1.658127 2.475233 85.817437 0 0 0
778 1 0 3.032829 3.85887 87.318443 0 0 0
779 2 0 4.135841 2.865252 87.303358 -1 0 0
780 3 0 3.563728 4.785472 87.320667 0 0 0
781 1 0 2.292462 3.803372 88.703834 0 0 0
782 2 0 1.313525 4.755106 88.713502 0 0 0
783 2 0 1.64069 2.591254 88.73517 0 0 0
212 1 0 1.019359 7.954526 90.087868 0 -1 0
213 3 0 1.64045 7.091965 90.072349 0 -1 0
214 3 0 1.629565 0.682805 90.018827 0 0 0
215 1 0 0.140157 8.033248 91.411283 0 -1 0
216 2 0 3.737886 0.967247 91.259863 -1 0 0
217 2 0 3.750638 6.934092 91.479771 -1 -1 0
218 1 0 0.917578 8.117459 92.79115 0 -1 0
219 3 0 1.458071 7.212151 92.926892 0 -1 0
220 3 0 1.654646 0.740986 92.754385 0 0 0
221 1 0 0.055733 0.100468 94.06176 0 0 0
222 2 0 3.7720190000000002 1.277627 94.042097 -1 0 0
223 2 0 3.525902 7.22405 94.009497 0 -1 0
224 1 0 0.753498 8.139575 95.455596 0 -1 0
225 3 0 1.320784 7.223286 95.436491 0 -1 0
226 2 0 1.840029 0.98164 95.496292 0 0 0
227 1 0 4.385197 0.116069 96.886108 -1 0 0
228 2 0 3.853975 1.383904 96.92549 -1 0 0
229 2 0 3.316772 7.368918 96.954686 0 -1 0
784 1 0 3.038088 3.904376 90.034849 0 0 0
785 3 0 3.780519 3.104299 90.109601 -1 0 0
786 3 0 3.583918 4.851311 90.046159 0 0 0
787 1 0 2.262008 3.91942 91.375187 0 0 0
788 2 0 1.512975 5.055183 91.396453 0 0 0
789 2 0 1.329247 2.866511 91.439211 0 0 0
790 1 0 3.077941 3.94513 92.770016 0 0 0
791 3 0 3.691048 3.102706 92.781601 0 0 0
792 3 0 3.729133 4.783883 92.803932 -1 0 0
793 1 0 2.279822 4.096319 94.051017 0 0 0
794 2 0 1.559459 5.27986 94.008774 0 0 0
795 2 0 1.309926 3.086521 94.049092 0 0 0
796 1 0 3.046468 4.065628 95.513532 0 0 0
797 3 0 3.642601 3.176355 95.475691 0 0 0
798 2 0 3.991819 5.110717 95.506528 -1 0 0
799 1 0 2.226318 4.095592 96.872373 0 0 0
800 2 0 1.618788 5.34382 96.984178 0 0 0
801 2 0 1.167527 3.114941 96.736695 0 0 0
230 1 0 0.73824 8.046990000000001 98.141815 0 -1 0
231 3 0 1.290415 7.180178 98.001849 0 -1 0
232 3 0 1.380889 0.718662 98.126548 0 0 0
233 1 0 4.400017 7.969302 99.556735 -1 -1 0
234 2 0 3.52557 0.885585 99.630236 0 0 0
235 2 0 3.688132 6.782376 99.546942 0 -1 0
236 1 0 0.655675 7.953877 100.941585 0 -1 0
237 3 0 1.370087 7.204639 100.90827 0 -1 0
238 3 0 1.258706 0.666433 100.984258 0 0 0
239 1 0 4.266403 7.80998 102.229402 -1 -1 0
240 2 0 3.330233 0.663929 102.197168 0 0 0
241 2 0 3.61289 6.624316 102.111561 0 -1 0
242 1 0 0.626889 7.8905590000000005 103.640496 0 -1 0
243 2 0 1.732513 6.9613130000000005 103.705889 0 -1 0
244 3 0 1.17286 0.635136 103.62613 0 0 0
245 1 0 4.28753 7.852811 105.01236 -1 -1 0
246 2 0 3.254727 0.614233 104.923281 0 0 0
247 2 0 3.671033 6.61357 105.115619 0 -1 0
802 1 0 2.934818 3.866434 98.196195 0 0 0
803 3 0 3.421831 2.922739 98.0512 0 0 0
804 3 0 3.763399 4.582312 98.209624 -1 0 0
805 1 0 2.134788 3.913979 99.512854 0 0 0
806 2 0 1.422123 5.068518 99.462482 0 0 0
807 2 0 1.235504 2.833681 99.558598 0 0 0
808 1 0 2.906723 3.886775 100.91057 0 0 0
809 3 0 3.705474 3.179906 100.791188 -1 0 0
810 3 0 3.431871 4.865984 100.992607 0 0 0
811 1 0 2.200919 3.752713 102.236886 0 0 0
812 2 0 1.191386 4.730716 102.324064 0 0 0
813 2 0 1.56108 2.555132 102.251368 0 0 0
814 1 0 2.989819 3.811428 103.710034 0 0 0
815 2 0 3.965584 2.747087 103.688956 -1 0 0
816 3 0 3.601188 4.645633 103.71867 0 0 0
817 1 0 2.186693 3.812767 105.048237 0 0 0
818 2 0 1.279017 4.894226 105.130896 0 0 0
819 2 0 1.442984 2.638503 105.116127 0 0 0
248 1 0 0.604543 8.133957 106.305278 0 -1 0
249 3 0 1.29022 7.316371 106.386453 0 -1 0
250 3 0 1.18675 0.904509 106.250596 0 0 0
251 1 0 4.300194 8.029777 107.652252 -1 -1 0
252 2 0 3.39181 0.87148 107.674989 0 0 0
253 2 0 3.522288 6.851695 107.657222 0 -1 0
254 1 0 0.653516 8.116935 109.068072 0 -1 0
255 3 0 1.33799 7.2839100000000006 109.108243 0 -1 0
256 3 0 1.329404 0.881596 109.038569 0 0 0
257 1 0 4.302196 0.03944 110.316991 -1 0 0
258 2 0 3.576247 1.246376 110.297317 0 0 0
259 2 0 3.343671 7.149593 110.217792 0 -1 0
260 1 0 0.618485 8.09916 111.760017 0 -1 0
261 3 0 1.00444 7.132988 111.76029 0 -1 0
262 2 0 1.711915 0.859613 111.689595 0 0 0
263 1 0 4.3874960000000005 0.040626 113.183475 -1 0 0
264 2 0 3.713689 1.286961 113.218558 -1 0 0
265 2 0 3.416218 7.191363 113.2613 0 -1 0
820 1 0 3.016216 3.921561 106.357293 0 0 0
821 3 0 3.70438 3.086381 106.406119 -1 0 0
822 3 0 3.66326 4.810907 106.2615 0 0 0
823 1 0 2.244041 3.966193 107.736714 0 0 0
824 2 0 1.463921 5.110803 107.705721 0 0 0
825 2 0 1.428118 2.900552 107.7685 0 0 0
826 1 0 3.071328 4.012885 109.092019 0 0 0
827 3 0 3.554657 3.084365 109.130203 0 0 0
828 3 0 3.773969 4.851388 109.056937 -1 0 0
829 1 0 2.231575 4.120588 110.382677 0 0 0
830 2 0 1.556115 5.378301 110.266217 0 0 0
831 2 0 1.260877 3.142002 110.313548 0 0 0
832 1 0 3.004768 4.016666 111.731718 0 0 0
833 3 0 3.438838 3.075693 111.719515 0 0 0
834 2 0 4.081562 4.98617 111.701178 -1 0 0
835 1 0 2.231025 4.101553 113.186773 0 0 0
836 2 0 1.492138 5.26524 113.229277 0 0 0
837 2 0 1.3714 3.038535 113.238347 0 0 0
266 1 0 0.748295 8.063452 114.490326 0 -1 0
267 3 0 1.158485 7.032011000000001 114.455886 0 -1 0
268 3 0 1.553994 0.619544 114.455581 0 0 0
269 1 0 4.356064 0.036795 115.84648 -1 0 0
270 2 0 3.713724 1.229492 115.836559 -1 0 0
271 2 0 3.351461 7.280645 115.775184 0 -1 0
272 1 0 0.612723 8.081117 117.266847 0 -1 0
273 3 0 1.340436 7.308292 117.281843 0 -1 0
274 3 0 1.223857 0.780183 117.481047 0 0 0
275 1 0 4.265745 7.893926 118.562059 -1 -1 0
276 2 0 3.257756 0.752696 118.572255 0 0 0
277 2 0 3.635891 6.631103 118.409984 0 -1 0
278 1 0 0.586574 7.972327 119.969542 0 -1 0
279 2 0 1.717635 7.000915 119.95072 0 -1 0
280 3 0 0.980558 0.785365 119.957739 0 0 0
281 1 0 4.225072 7.839354 121.327238 -1 -1 0
282 2 0 3.249406 0.647146 121.354583 0 0 0
283 2 0 3.665707 6.598107000000001 121.372426 0 -1 0
838 1 0 2.992927 4.119127 114.535161 0 0 0
839 3 0 3.676506 3.244757 114.552901 0 0 0
840 3 0 3.684543 4.957633 114.497841 0 0 0
841 1 0 2.124444 4.182704 115.883266 0 0 0
842 2 0 1.358805 5.315618 115.897213 0 0 0
843 2 0 1.29166 3.113616 115.842926 0 0 0
844 1 0 2.85806 4.183622 117.226407 0 0 0
845 3 0 3.526501 3.308127 117.132125 0 0 0
846 3 0 3.544047 4.961607 117.377535 0 0 0
847 1 0 2.072265 3.927923 118.628685 0 0 0
848 2 0 1.080469 4.889629 118.659494 0 0 0
849 2 0 1.465539 2.701054 118.537639 0 0 0
850 1 0 2.851182 3.97394 119.93125 0 0 0
851 2 0 3.950791 2.942398 119.930122 -1 0 0
852 3 0 3.398376 4.900781 119.974286 0 0 0
853 1 0 2.083465 3.916765 121.328302 0 0 0
854 2 0 1.095338 4.872851 121.266043 0 0 0
855 2 0 1.439857 2.709831 121.40128 0 0 0
284 1 0 0.592281 7.936914 122.648578 0 -1 0
285 3 0 1.270778 7.053991 122.721799 0 -1 0
286 1 0 4.3425780000000005 8.122456 124.047739 -1 -1 0
287 2 0 3.647557 1.131114 123.972184 0 0 0
288 1 0 0.77347 8.125137 125.330305 0 -1 0
289 3 0 1.391705 7.255111 125.348605 0 -1 0
290 3 0 1.437355 0.779431 125.24765 0 0 0
291 1 0 4.425078 0.038921 126.704987 -1 0 0
292 2 0 3.548157 1.101288 126.705669 0 0 0
293 2 0 3.66954 7.083964 126.802291 0 -1 0
294 1 0 0.783754 0.162695 128.008109 0 0 0
295 3 0 1.493565 7.503036 128.016546 0 -1 0
296 3 0 1.401158 1.01378 128.057495 0 0 0
297 1 0 4.358835 0.160817 129.338404 -1 0 0
298 2 0 3.533461 1.236533 129.34849 0 0 0
299 2 0 3.548648 7.151120000000001 129.390492 0 -1 0
856 1 0 2.880437 4.043213 122.714435 0 0 0
857 3 0 3.635831 3.271545 122.680759 0 0 0
858 1 0 2.124385 3.964858 124.031561 0 0 0
859 2 0 1.208186 5.04416 123.987093 0 0 0
860 1 0 2.93806 4.050282 125.385543 0 0 0
861 3 0 3.604344 3.172524 125.471103 0 0 0
862 3 0 3.548027 4.870114 125.323149 0 0 0
863 1 0 2.14891 4.156921 126.754515 0 0 0
864 2 0 1.422345 5.29403 126.758891 0 0 0
865 2 0 1.207627 3.10609 126.689581 0 0 0
866 1 0 2.891311 4.124329 128.10583 0 0 0
867 3 0 3.574459 3.316372 128.095737 0 0 0
868 3 0 3.529416 4.950558 128.106626 0 0 0
869 1 0 2.145497 4.200819 129.491865 0 0 0
870 2 0 1.569465 5.450664 129.516295 0 0 0
871 2 0 1.091204 3.239393 129.461295 0 0 0
300 1 0 0.713674 0.27341 130.678221 0 0 0
301 3 0 1.575612 7.780512 130.641287 0 -1 0
302 3 0 1.072293 1.259641 130.708904 0 0 0
303 1 0 4.370953 0.076384 132.049878 -1 0 0
304 2 0 3.445649 1.108028 132.192368 0 0 0
305 2 0 3.659369 7.069678 131.911382 0 -1 0
306 1 0 0.655267 8.098431 133.439616 0 -1 0
307 3 0 1.372531 7.37436 133.422065 0 -1 0
308 3 0 1.184588 0.900796 133.547797 0 0 0
309 1 0 4.322236 7.862124000000001 134.77547 -1 -1 0
310 2 0 3.277385 0.647044 134.826892 0 0 0
311 2 0 3.654007 6.621099 134.698676 0 -1 0
312 1 0 0.653257 7.9337610000000005 136.129789 0 -1 0
313 2 0 1.842962 7.037948 136.135832 0 -1 0
314 3 0 1.134187 0.748224 136.060349 0 0 0
315 1 0 4.388651 7.8889640000000005 137.592066 -1 -1 0
316 2 0 3.57386 0.808049 137.665135 0 0 0
317 2 0 3.622672 6.75376 137.634094 0 -1 0
872 1 0 2.937039 4.062837 130.85692 0 0 0
873 3 0 3.420245 3.141972 130.79862 0 0 0
874 3 0 3.683989 4.830322 130.889158 0 0 0
875 1 0 2.12841 4.091997 132.206615 0 0 0
876 2 0 1.459997 5.30655 132.268316 0 0 0
877 2 0 1.136936 3.089232 132.100703 0 0 0
878 1 0 2.917822 4.001788 133.603609 0 0 0
879 3 0 3.653756 3.257092 133.504074 0 0 0
880 3 0 3.384695 4.927979 133.694483 0 0 0
881 1 0 2.105594 3.793217 134.875537 0 0 0
882 2 0 1.140811 4.750968 134.916523 0 0 0
883 2 0 1.506027 2.54345 134.72207 0 0 0
884 1 0 2.928549 3.889472 136.263012 0 0 0
885 2 0 4.07729 2.978558 136.218973 -1 0 0
886 3 0 3.475847 4.793575 136.147023 0 0 0
887 1 0 2.25387 3.847738 137.719408 0 0 0
888 2 0 1.255821 4.804113 137.685598 0 0 0
889 2 0 1.580783 2.627741 137.806683 0 0 0
318 1 0 0.831545 7.938149 138.882142 0 -1 0
319 3 0 1.465661 7.064872 138.919442 0 -1 0
320 3 0 1.482061 0.619123 138.866162 0 0 0
321 1 0 0.14392 7.954543 140.223054 0 -1 0
322 2 0 3.736116 0.80815 140.204615 -1 0 0
323 2 0 3.793172 6.808787000000001 140.276441 -1 -1 0
324 1 0 0.863729 8.059253 141.647473 0 -1 0
325 3 0 1.539336 7.26419 141.757526 0 -1 0
326 3 0 1.487377 0.826671 141.634738 0 0 0
327 1 0 0.04345 8.112613 142.961651 0 -1 0
328 2 0 3.791594 1.157484 142.921672 -1 0 0
329 2 0 3.545887 7.103428 142.918922 0 -1 0
330 1 0 0.824711 8.088407 144.30464 0 -1 0
331 3 0 1.341378 7.177456 144.316813 0 -1 0
332 2 0 1.864385 0.922498 144.287303 0 0 0
333 1 0 4.43265 0.045046 145.751312 -1 0 0
334 2 0 3.82533 1.332247 145.827061 -1 0 0
335 2 0 3.375442 7.293547 145.660096 0 -1 0
890 1 0 2.999208 3.950951 139.055692 0 0 0
891 3 0 3.717732 3.134701 139.135984 -1 0 0
892 3 0 3.593441 4.805667 139.064926 0 0 0
893 1 0 2.196457 3.880226 140.414946 0 0 0
894 2 0 1.406216 5.045136 140.447734 0 0 0
895 2 0 1.368655 2.809593 140.365685 0 0 0
896 1 0 2.877805 3.865141 141.82214 0 0 0
897 3 0 3.42661 2.960217 141.792049 0 0 0
898 3 0 3.624994 4.614297 141.835686 0 0 0
899 1 0 1.971021 4.007869 143.044841 0 0 0
900 2 0 1.387868 5.241275 142.916223 0 0 0
901 2 0 0.954831 3.0271 143.004706 0 0 0
902 1 0 2.696858 3.920706 144.466804 0 0 0
903 3 0 3.055251 2.948532 144.579969 0 0 0
904 2 0 3.833408 4.915041 144.402111 -1 0 0
905 1 0 1.973631 4.084575 145.863338 0 0 0
906 2 0 1.403029 5.343671 145.914809 0 0 0
907 2 0 0.948733 3.162897 145.861616 0 0 0
336 1 0 0.710528 7.937524 147.044901 0 -1 0
337 3 0 1.189346 6.9265810000000005 146.980722 0 -1 0
338 3 0 1.513115 0.47832 147.096763 0 0 0
339 1 0 4.312937 7.959388000000001 148.386724 -1 -1 0
340 2 0 3.613923 1.010096 148.396963 0 0 0
341 2 0 3.413025 6.93823 148.433453 0 -1 0
342 1 0 0.659531 7.949877 149.773428 0 -1 0
343 3 0 1.352446 7.128575 149.736473 0 -1 0
344 3 0 1.247932 0.660851 149.732972 0 0 0
345 1 0 4.215855 7.850016 151.036677 -1 -1 0
346 2 0 3.374648 0.800652 151.023783 0 0 0
347 2 0 3.430326 6.730735 150.919115 0 -1 0
348 1 0 0.542375 7.890784 152.462945 0 -1 0
349 2 0 1.653868 6.966168 152.462395 0 -1 0
350 3 0 1.121478 0.614514 152.483498 0 0 0
351 1 0 4.272511 7.8622760000000005 153.890688 -1 -1 0
352 2 0 3.338534 0.754472 153.903177 0 0 0
353 2 0 3.610305 6.682113 153.997857 0 -1 0
908 1 0 2.801773 3.842836 147.156792 0 0 0
909 3 0 3.394 3.00632 147.034069 0 0 0
910 3 0 3.547162 4.643133 147.391563 0 0 0
911 1 0 2.06325 3.776567 148.582333 0 0 0
912 2 0 1.038449 4.722621 148.607059 0 0 0
913 2 0 1.461235 2.539224 148.644927 0 0 0
914 1 0 2.84473 3.90827 149.914417 0 0 0
915 3 0 3.623365 3.182301 149.863865 0 0 0
916 3 0 3.328556 4.887296 149.94086 0 0 0
917 1 0 2.137053 3.782064 151.283752 0 0 0
918 2 0 1.195457 4.77052 151.311997 0 0 0
919 2 0 1.438675 2.584656 151.27234 0 0 0
920 1 0 3.003653 3.842156 152.64511 0 0 0
921 2 0 4.042518 2.799771 152.637324 -1 0 0
922 3 0 3.607971 4.69114 152.499405 0 0 0
923 1 0 2.284259 3.858905 154.060001 0 0 0
924 2 0 1.421164 4.945983 154.079625 0 0 0
925 2 0 1.477535 2.737397 154.164778 0 0 0
354 1 0 0.605774 7.968499 155.189746 0 -1 0
355 3 0 1.191255 7.068785 155.179212 0 -1 0
356 3 0 1.307498 0.642862 155.183758 0 0 0
357 1 0 4.3102030000000005 8.048481 156.60629 -1 -1 0
358 2 0 3.475225 1.005413 156.588631 0 0 0
359 2 0 3.45729 6.954767 156.672084 0 -1 0
360 1 0 0.683686 8.043215 157.980907 0 -1 0
361 3 0 1.212001 7.09028 158.079559 0 -1 0
362 3 0 1.438083 0.631535 158.025082 0 0 0
363 1 0 4.411149 8.104984 159.340626 -1 -1 0
364 2 0 3.659481 1.182009 159.331398 0 0 0
365 2 0 3.473293 7.081152 159.349987 0 -1 0
366 1 0 0.748775 8.046414 160.676277 0 -1 0
367 3 0 1.237597 7.098204 160.697204 0 -1 0