LAMMPS data file via write_data, version 2 Aug 2023, timestep = 0, units = real

1144 atoms
3 atom types

0 4.450643 xlo xhi
0 8.155121 ylo yhi
0 261.355065 zlo zhi

Masses

1 12.0107
2 18.998404
3 1.00794

Atoms # charge

14 1 0 0.622554 7.930758999999999 0.227165 0 -1 0
15 3 0 1.303598 7.060281999999999 0.125598 0 -1 0
16 3 0 1.248282 0.676348 0.282113 0 0 0
17 1 0 4.343159 7.917243999999999 1.587888 -1 -1 0
18 2 0 3.4414840000000004 0.881678 1.573622 -1 0 0
19 2 0 3.5836390000000002 6.763427999999999 1.616807 -1 -1 0
20 1 0 0.712393 7.995095999999999 2.977985 0 -1 0
21 3 0 1.468891 7.187392999999999 2.898467 0 -1 0
22 3 0 1.294505 0.772009 2.990739 0 0 0
23 1 0 4.435172000000001 7.904412999999999 4.293239 -1 -1 0
24 2 0 3.421616 0.672107 4.312174 -1 0 0
25 2 0 3.8296910000000004 6.691313999999999 4.293841 -1 -1 0
26 1 0 0.847191 8.018827 5.6728 0 -1 0
27 2 0 1.814266 6.975060999999999 5.750734 0 -1 0
28 3 0 1.310933 0.845227 5.625848 0 0 0
29 1 0 4.435122000000001 7.9115329999999995 7.010335 -1 -1 0
30 2 0 3.4243250000000005 0.665569 6.934134 -1 0 0
31 2 0 3.8126950000000006 6.6285739999999995 7.05464 -1 -1 0
586 1 0 2.873879 3.985287 0.09532 0 0 0
587 3 0 3.523397 3.103634 0.05149 0 0 0
588 3 0 3.435096 4.94229 0.09335 0 0 0
589 1 0 2.17229 3.985128 1.492118 0 0 0
590 2 0 1.521882 5.204369 1.562289 0 0 0
591 2 0 1.211308 3.004146 1.500226 0 0 0
592 1 0 2.9944 3.856974 2.868622 0 0 0
593 3 0 3.630146 2.954779 2.762471 0 0 0
594 3 0 3.571822 4.739758 2.967267 0 0 0
595 1 0 2.176754 3.744948 4.152208 0 0 0
596 2 0 1.187824 4.677993 4.123676 0 0 0
597 2 0 1.534971 2.525063 4.030069 0 0 0
598 1 0 2.993976 3.840254 5.539299 0 0 0
599 2 0 4.056133 2.8362 5.545312 0 0 0
600 3 0 3.500848 4.792909 5.606517 0 0 0
601 1 0 2.216273 3.842641 6.904307 0 0 0
602 2 0 1.263894 4.81196 6.893273 0 0 0
603 2 0 1.576071 2.612006 7.066737 0 0 0
32 1 0 0.80689 8.085612999999999 8.264261 0 -1 0
33 3 0 1.596342 7.413669 8.377153 0 -1 0
34 3 0 1.207836 0.931683 8.184027 0 0 0
35 1 0 4.437588000000001 8.063466 9.698872 -1 -1 0
36 2 0 3.6148290000000003 0.984462 9.650195 -1 0 0
37 2 0 3.6270240000000005 6.892415999999999 9.752465 -1 -1 0
38 1 0 0.802558 8.147298999999999 11.038849 0 -1 0
39 3 0 1.449622 7.2861839999999995 10.998079 0 -1 0
40 3 0 1.398875 0.835862 10.94548 0 0 0
41 1 0 0.053649 0.009581 12.398357 0 0 0
42 2 0 3.7747430000000004 1.181122 12.342621 -1 0 0
43 2 0 3.5166160000000004 7.188457 12.329219 -1 -1 0
44 1 0 0.808896 8.102445 13.85149 0 -1 0
45 3 0 1.275179 7.175863 13.84166 0 -1 0
46 2 0 1.820828 1.046573 13.854254 0 0 0
47 1 0 4.446009 0.047718 15.181657 -1 0 0
48 2 0 3.8227740000000003 1.284199 15.257871 -1 0 0
49 2 0 3.4349030000000003 7.265963999999999 15.132853 -1 -1 0
604 1 0 3.022934 3.962863 8.232404 0 0 0
605 3 0 3.624433 3.044657 8.294774 0 0 0
606 3 0 3.664899 4.822341 8.180708 0 0 0
607 1 0 2.238922 4.026526 9.593775 0 0 0
608 2 0 1.472907 5.159242 9.549178 0 0 0
609 2 0 1.387345 2.972824 9.602494 0 0 0
610 1 0 2.88545 4.009454 11.059532 0 0 0
611 3 0 3.537238 3.154254 11.216974 0 0 0
612 3 0 3.567768 4.810409 11.021048 0 0 0
613 1 0 2.094357 4.217725 12.354918 0 0 0
614 2 0 1.408913 5.422494 12.274207 0 0 0
615 2 0 1.082933 3.250162 12.379886 0 0 0
616 1 0 2.834671 4.168081 13.795735 0 0 0
617 3 0 3.383752 3.247131 13.788136 0 0 0
618 2 0 3.870352 5.1402 13.822469 0 0 0
619 1 0 2.043346 4.165155 15.183619 0 0 0
620 2 0 1.325051 5.3793 15.305695 0 0 0
621 2 0 1.106038 3.140804 15.163444 0 0 0
50 1 0 0.733735 8.002127999999999 16.519945 0 -1 0
51 3 0 1.220908 7.063212999999999 16.365154 0 -1 0
52 3 0 1.466466 0.562493 16.535764 0 0 0
53 1 0 4.351005000000001 8.057732999999999 17.807977 -1 -1 0
54 2 0 3.6582990000000004 1.090682 17.820752 -1 0 0
55 2 0 3.4197590000000004 7.021241 17.779641 -1 -1 0
56 1 0 0.692291 8.02348 19.243956 0 -1 0
57 3 0 1.313686 7.205316 19.294064 0 -1 0
58 3 0 1.31349 0.746543 19.302299 0 0 0
59 1 0 4.272369 7.977988999999999 20.489778 -1 -1 0
60 2 0 3.4355960000000003 0.894278 20.458391 -1 0 0
61 2 0 3.5171750000000004 6.7968399999999995 20.440584 -1 -1 0
62 1 0 0.555449 8.020069999999999 21.973357 0 -1 0
63 2 0 1.631766 7.080659999999999 21.937752 0 -1 0
64 3 0 1.034902 0.798019 22.110774 0 0 0
65 1 0 4.282756 7.874091999999999 23.362481 -1 -1 0
66 2 0 3.1789190000000005 0.590775 23.44982 -1 0 0
67 2 0 3.772559 6.574348 23.426645 -1 -1 0
622 1 0 2.866306 4.040118 16.477026 0 0 0
623 3 0 3.381117 3.116106 16.511016 0 0 0
624 3 0 3.646205 4.735965 16.501714 0 0 0
625 1 0 2.056145 4.077768 17.875487 0 0 0
626 2 0 1.264112 5.196249 17.88152 0 0 0
627 2 0 1.155212 3.016402 17.86957 0 0 0
628 1 0 2.882129 3.988589 19.256134 0 0 0
629 3 0 3.578453 3.217295 19.158952 0 0 0
630 3 0 3.418589 4.877758 19.295662 0 0 0
631 1 0 2.120286 3.873094 20.559087 0 0 0
632 2 0 1.128264 4.852283 20.605893 0 0 0
633 2 0 1.426025 2.644569 20.485359 0 0 0
634 1 0 3.017263 3.9111 21.870281 0 0 0
635 2 0 3.873583 2.784943 21.868608 0 0 0
636 3 0 3.603864 4.804793 21.787294 0 0 0
637 1 0 2.317705 4.005966 23.348887 0 0 0
638 2 0 1.604968 5.179118 23.404641 0 0 0
639 2 0 1.370873 2.978254 23.46738 0 0 0
68 1 0 0.649761 8.123686999999999 24.625899 0 -1 0
69 3 0 1.496221 7.456791999999999 24.679478 0 -1 0
70 3 0 1.042366 0.90848 24.555816 0 0 0
71 1 0 4.340808 7.988688 26.048861 -1 -1 0
72 2 0 3.3615460000000006 0.792876 26.097552 -1 0 0
73 2 0 3.6690540000000005 6.816539 26.09899 -1 -1 0
74 1 0 0.817232 8.143046 27.319143 0 -1 0
75 3 0 1.397869 7.2615549999999995 27.321831 0 -1 0
76 3 0 1.406598 0.868237 27.221836 0 0 0
77 1 0 0.040791 0.088222 28.660595 0 0 0
78 2 0 3.8712210000000002 1.307057 28.586512 -1 0 0
79 2 0 3.5124710000000006 7.284164 28.67385 -1 -1 0
80 1 0 0.777622 8.122183 30.05745 0 -1 0
81 3 0 1.198924 7.176582999999999 30.08128 0 -1 0
82 2 0 1.968419 0.901111 30.01053 0 0 0
83 1 0 4.43166 0.136416 31.410789 -1 0 0
84 2 0 3.9235320000000002 1.389147 31.468039 -1 0 0
85 2 0 3.3423380000000003 7.374229 31.387396 -1 -1 0
87 3 0 1.281577 7.136746 32.654019 0 -1 0
640 1 0 3.154848 3.950016 24.62109 0 0 0
641 3 0 3.808035 3.059127 24.645867 0 0 0
642 3 0 3.809006 4.779666 24.679306 0 0 0
643 1 0 2.346527 3.983137 25.990408 0 0 0
644 2 0 1.548373 5.115519 26.001526 0 0 0
645 2 0 1.451994 2.888745 26.063216 0 0 0
646 1 0 3.164412 3.929975 27.381218 0 0 0
647 3 0 3.56055 2.905613 27.483055 0 0 0
648 3 0 3.960934 4.681219 27.425574 0 0 0
649 1 0 2.345493 4.09917 28.685505 0 0 0
650 2 0 1.754107 5.358506 28.587815 0 0 0
651 2 0 1.296823 3.207115 28.644609 0 0 0
652 1 0 3.020817 4.002286 30.120861 0 0 0
653 3 0 3.579162 3.088499 30.124612 0 0 0
654 2 0 4.227711 4.891503 30.171998 0 0 0
655 1 0 2.240608 4.09427 31.518017 0 0 0
656 2 0 1.632053 5.365888 31.608848 0 0 0
657 2 0 1.213043 3.178691 31.47954 0 0 0
86 1 0 0.735722 8.082144 32.797796 0 -1 0
88 3 0 1.463481 0.681775 32.8979 0 0 0
89 1 0 4.379537 8.054172 34.126518 -1 -1 0
90 2 0 3.540757 1.002317 34.073884 -1 0 0
91 2 0 3.5846470000000004 6.883766 34.100033 -1 -1 0
92 1 0 0.658374 8.072859999999999 35.513239 0 -1 0
93 3 0 1.412862 7.31776 35.49127 0 -1 0
94 3 0 1.189698 0.837805 35.645608 0 0 0
95 1 0 4.336896 7.890718999999999 36.81796 -1 -1 0
96 2 0 3.3031530000000004 0.599682 36.812997 -1 0 0
97 2 0 3.788641 6.625986999999999 36.727079 -1 -1 0
98 1 0 0.624735 8.002621999999999 38.261938 0 -1 0
99 2 0 1.754644 7.116369 38.251555 0 -1 0
100 3 0 1.004797 0.846492 38.343746 0 0 0
101 1 0 4.281107 7.823052 39.640287 -1 -1 0
102 2 0 3.19437 0.575972 39.69312 -1 0 0
103 2 0 3.7209540000000003 6.597776 39.640468 -1 -1 0
106 3 0 1.244673 0.610156 40.802586 0 0 0
658 1 0 2.952589 3.863658 32.864992 0 0 0
659 3 0 3.427448 2.897381 32.790371 0 0 0
660 3 0 3.745826 4.543861 33.027952 0 0 0
661 1 0 2.207105 3.898649 34.228666 0 0 0
662 2 0 1.45315 5.054293 34.22971 0 0 0
663 2 0 1.297216 2.843239 34.254996 0 0 0
664 1 0 3.032615 3.906365 35.537193 0 0 0
665 3 0 3.643506 3.006777 35.45332 0 0 0
666 3 0 3.684319 4.779543 35.602283 0 0 0
667 1 0 2.236904 3.827375 36.869863 0 0 0
668 2 0 1.371846 4.915915 36.864848 0 0 0
669 2 0 1.423433 2.696848 36.805443 0 0 0
670 1 0 2.974436 3.796825 38.282879 0 0 0
671 2 0 3.885425 2.684119 38.33648 0 0 0
672 3 0 3.577383 4.652322 38.322852 0 0 0
673 1 0 2.163012 3.861994 39.693095 0 0 0
674 2 0 1.159207 4.883916 39.652042 0 0 0
675 2 0 1.495144 2.653909 39.804187 0 0 0
104 1 0 0.591643 7.9382589999999995 40.972811 0 -1 0
105 3 0 1.274016 7.110358 41.250523 0 -1 0
107 1 0 4.292968 8.107325999999999 42.336538 -1 -1 0
108 2 0 3.5670620000000004 1.140594 42.269249 -1 0 0
109 2 0 3.3628090000000004 7.0775809999999995 42.416366 -1 -1 0
110 1 0 0.596028 8.056992 43.725629 0 -1 0
111 3 0 1.137142 7.117321 43.764685 0 -1 0
112 3 0 1.410178 0.615579 43.648621 0 0 0
113 1 0 4.2745880000000005 0.048457 45.030462 -1 0 0
114 2 0 3.6638280000000005 1.242499 45.005877 -1 0 0
115 2 0 3.2416220000000004 7.246149999999999 44.988458 -1 -1 0
116 1 0 0.622551 8.085745999999999 46.39235 0 -1 0
117 3 0 0.953133 7.117678 46.336015 0 -1 0
118 2 0 1.704681 0.825282 46.371642 0 0 0
119 1 0 4.294152 8.147934 47.834869 -1 -1 0
120 2 0 3.6725000000000003 1.218734 47.933044 -1 0 0
121 2 0 3.3536290000000006 7.1221689999999995 47.929774 -1 -1 0
123 3 0 1.291094 7.1069189999999995 48.97812 0 -1 0
676 1 0 2.909172 3.975662 41.020884 0 0 0
677 3 0 3.470795 3.050652 41.050105 0 0 0
678 3 0 3.580116 4.861908 40.901823 0 0 0
679 1 0 2.092677 3.922159 42.394627 0 0 0
680 2 0 1.243432 4.974992 42.431813 0 0 0
681 2 0 1.337671 2.745294 42.396363 0 0 0
682 1 0 2.932699 3.958056 43.690185 0 0 0
683 3 0 3.515887 3.04454 43.647878 0 0 0
684 3 0 3.6496 4.743877 43.616321 0 0 0
685 1 0 2.231952 4.106718 45.122146 0 0 0
686 2 0 1.591936 5.302808 45.126542 0 0 0
687 2 0 1.264024 3.128233 45.130301 0 0 0
688 1 0 3.037292 4.073526 46.463675 0 0 0
689 3 0 3.591143 3.173196 46.422425 0 0 0
690 2 0 4.089208 5.192285 46.438322 0 0 0
691 1 0 2.278955 4.065072 47.832793 0 0 0
692 2 0 1.607402 5.237867 47.945546 0 0 0
693 2 0 1.324745 3.072031 47.774245 0 0 0
122 1 0 0.723097 7.99614 49.036676 0 -1 0
124 3 0 1.44784 0.602174 49.162385 0 0 0
125 1 0 4.420657 7.978192999999999 50.475916 -1 -1 0
126 2 0 3.6942060000000003 1.027977 50.42439 -1 0 0
127 2 0 3.4729810000000003 6.938325999999999 50.525157 -1 -1 0
128 1 0 0.781838 7.988148999999999 51.803567 0 -1 0
129 3 0 1.425941 7.126840999999999 51.72018 0 -1 0
130 3 0 1.496638 0.631976 51.781366 0 0 0
131 1 0 0.077495 7.896824 53.207715 0 -1 0
132 2 0 3.5901810000000003 0.755602 53.200661 -1 0 0
133 2 0 3.8342730000000005 6.6718139999999995 53.161368 -1 -1 0
134 1 0 0.883514 7.947126999999999 54.606839 0 -1 0
135 2 0 1.882171 6.9676279999999995 54.671879 0 -1 0
136 3 0 1.380787 0.75339 54.495724 0 0 0
137 1 0 0.057944 7.972504 55.972304 0 -1 0
138 2 0 3.5514820000000005 0.807969 55.91511 -1 0 0
139 2 0 3.8193610000000002 6.744663999999999 56.085667 -1 -1 0
694 1 0 3.050922 3.882485 49.191126 0 0 0
695 3 0 3.633604 3.028961 49.02021 0 0 0
696 3 0 3.709256 4.751493 49.17309 0 0 0
697 1 0 2.214167 3.904124 50.528552 0 0 0
698 2 0 1.379612 5.016094 50.453992 0 0 0
699 2 0 1.407041 2.794444 50.542408 0 0 0
700 1 0 3.010885 3.985486 51.882336 0 0 0
701 3 0 3.689123 3.151953 51.783502 0 0 0
702 3 0 3.587032 4.835524 51.920655 0 0 0
703 1 0 2.215971 3.850529 53.207794 0 0 0
704 2 0 1.18099 4.768402 53.16592 0 0 0
705 2 0 1.667387 2.611818 53.169749 0 0 0
706 1 0 2.95593 3.923571 54.620762 0 0 0
707 2 0 4.101827 2.931238 54.629307 0 0 0
708 3 0 3.525335 4.832703 54.681561 0 0 0
709 1 0 2.196932 3.76091 56.023501 0 0 0
710 2 0 1.09372 4.614644 56.01373 0 0 0
711 2 0 1.704263 2.501463 56.014796 0 0 0
140 1 0 0.760884 0.050738 57.293235 0 0 0
141 3 0 1.554355 7.439909999999999 57.3443 0 -1 0
142 3 0 1.226272 0.981887 57.418546 0 0 0
143 1 0 4.323825 7.937194999999999 58.614107 -1 -1 0
144 2 0 3.3740870000000003 0.8855 58.680662 -1 0 0
145 2 0 3.610475 6.795184999999999 58.454983 -1 -1 0
146 1 0 0.576475 7.847617 59.991835 0 -1 0
147 3 0 1.193546 6.951148 60.009696 0 -1 0
148 3 0 1.268571 0.516251 60.014072 0 0 0
149 1 0 4.211753000000001 7.744698 61.319888 -1 -1 0
150 2 0 3.2623650000000004 0.70736 61.335066 -1 0 0
151 2 0 3.4752910000000004 6.559244999999999 61.362611 -1 -1 0
152 1 0 0.609592 7.873964999999999 62.686434 0 -1 0
153 3 0 1.365475 7.116484 62.715862 0 -1 0
154 3 0 1.149876 0.581481 62.570906 0 0 0
155 1 0 4.3194420000000004 7.9417729999999995 64.026381 -1 -1 0
156 2 0 3.3606260000000003 0.801741 64.023358 -1 0 0
157 2 0 3.6080660000000004 6.769424999999999 64.08312 -1 -1 0
160 3 0 1.299614 0.847436 65.279232 0 0 0
712 1 0 2.891418 3.938441 57.397361 0 0 0
713 3 0 3.575178 3.160138 57.557643 0 0 0
714 3 0 3.458388 4.808351 57.319995 0 0 0
715 1 0 2.009316 3.89627 58.716282 0 0 0
716 2 0 1.249926 5.010745 58.654822 0 0 0
717 2 0 1.191437 2.818847 58.698021 0 0 0
718 1 0 2.758296 3.864509 60.113371 0 0 0
719 3 0 3.438999 3.103905 60.067604 0 0 0
720 3 0 3.317182 4.753193 60.226002 0 0 0
721 1 0 1.97602 3.843998 61.453486 0 0 0
722 2 0 1.048681 4.861649 61.448218 0 0 0
723 2 0 1.254278 2.608762 61.474905 0 0 0
724 1 0 2.860063 3.880976 62.792964 0 0 0
725 3 0 3.599401 3.116554 62.807861 0 0 0
726 3 0 3.409969 4.759807 62.673196 0 0 0
727 1 0 2.110312 3.94983 64.172684 0 0 0
728 2 0 1.242714 5.06384 64.079977 0 0 0
729 2 0 1.285715 2.750486 64.190604 0 0 0
158 1 0 0.753414 8.060976 65.381214 0 -1 0
159 3 0 1.487077 7.369801999999999 65.340836 0 -1 0
161 1 0 0.094051 8.030431 66.747801 0 -1 0
162 2 0 3.5939250000000005 0.863061 66.743306 -1 0 0
163 2 0 3.7817040000000004 6.844206999999999 66.783366 -1 -1 0
164 1 0 0.862287 8.109556 68.268441 0 -1 0
165 3 0 1.622852 7.406007999999999 68.389862 0 -1 0
166 3 0 1.401897 0.898253 68.338722 0 0 0
167 1 0 0.03949 8.015219 69.496265 0 -1 0
168 2 0 3.5380540000000003 0.861635 69.376619 -1 0 0
169 2 0 3.780914 6.849418999999999 69.476249 -1 -1 0
170 1 0 0.750181 8.125753 70.972951 0 -1 0
171 2 0 1.665642 7.005929999999999 70.999838 0 -1 0
172 3 0 1.378864 0.826583 71.016934 0 0 0
173 1 0 4.321613 8.098707 72.304344 -1 -1 0
174 2 0 3.3839180000000004 0.903309 72.175979 -1 0 0
175 2 0 3.6401320000000004 6.904669999999999 72.376592 -1 -1 0
730 1 0 2.955561 4.000316 65.505672 0 0 0
731 3 0 3.619494 3.121955 65.451001 0 0 0
732 3 0 3.619628 4.83886 65.48224 0 0 0
733 1 0 2.204188 3.990778 66.84335 0 0 0
734 2 0 1.249606 4.992233 66.77191 0 0 0
735 2 0 1.528762 2.766792 66.882556 0 0 0
736 1 0 3.078602 4.126042 68.187697 0 0 0
737 3 0 3.947515 3.507932 68.325051 0 0 0
738 3 0 3.415061 5.098167 68.136466 0 0 0
739 1 0 2.239508 3.943367 69.478107 0 0 0
740 2 0 1.217571 4.911357 69.450527 0 0 0
741 2 0 1.540272 2.690832 69.385369 0 0 0
742 1 0 3.01029 3.98436 70.876772 0 0 0
743 2 0 4.024405 2.997956 70.843033 0 0 0
744 3 0 3.641227 4.877512 70.858975 0 0 0
745 1 0 2.257064 3.988396 72.280092 0 0 0
746 2 0 1.280757 4.976004 72.319862 0 0 0
747 2 0 1.530947 2.774382 72.397416 0 0 0
176 1 0 0.577788 0.145551 73.660093 0 0 0
177 3 0 1.351733 7.565414 73.68645 0 -1 0
178 3 0 1.008488 1.083647 73.643876 0 0 0
179 1 0 4.267107 8.098859 75.027086 -1 -1 0
180 2 0 3.2476350000000003 0.867641 75.082238 -1 0 0
181 2 0 3.6868630000000002 6.8370869999999995 74.973462 -1 -1 0
182 1 0 0.661788 0.071632 76.342269 0 0 0
183 3 0 1.287193 7.300596 76.40752 0 -1 0
184 3 0 1.319209 0.951979 76.34395 0 0 0
185 1 0 4.308341 0.117374 77.652894 -1 0 0
186 2 0 3.6547090000000004 1.279822 77.609631 -1 0 0
187 2 0 3.3769590000000003 7.2327189999999995 77.578979 -1 -1 0
188 1 0 0.624954 0.011954 79.096391 0 0 0
189 3 0 1.183991 7.273622 79.203692 0 -1 0
190 2 0 1.671004 0.95188 79.112935 0 0 0
191 1 0 4.261115 0.14971 80.463997 -1 0 0
192 2 0 3.7239750000000003 1.387704 80.496832 -1 0 0
193 2 0 3.2230990000000004 7.392403 80.500942 -1 -1 0
748 1 0 3.103117 4.121496 73.546178 0 0 0
749 3 0 3.822282 3.337298 73.551239 0 0 0
750 3 0 3.713853 5.019132 73.544348 0 0 0
751 1 0 2.310778 4.074094 74.939534 0 0 0
752 2 0 1.385449 5.046992 74.960691 0 0 0
753 2 0 1.533459 2.890415 74.956586 0 0 0
754 1 0 3.072318 4.086214 76.383035 0 0 0
755 3 0 3.744982 3.291746 76.480695 0 0 0
756 3 0 3.690099 4.985745 76.343804 0 0 0
757 1 0 2.224205 4.210889 77.633199 0 0 0
758 2 0 1.559868 5.410515 77.48246 0 0 0
759 2 0 1.299693 3.119763 77.612698 0 0 0
760 1 0 3.032194 4.15321 79.003746 0 0 0
761 3 0 3.644813 3.293113 78.955345 0 0 0
762 2 0 4.074387 5.152311 79.046815 0 0 0
763 1 0 2.229458 4.192329 80.396942 0 0 0
764 2 0 1.597792 5.440384 80.470213 0 0 0
765 2 0 1.250315 3.242599 80.398144 0 0 0
767 3 0 3.534245 3.212089 81.663187 0 0 0
194 1 0 0.495477 8.100252999999999 81.808666 0 -1 0
195 3 0 0.905117 7.142522999999999 81.756051 0 -1 0
196 3 0 1.307786 0.593347 81.808747 0 0 0
197 1 0 4.212652 0.047487 83.203542 -1 0 0
198 2 0 3.3811740000000006 1.19229 83.213664 -1 0 0
199 2 0 3.3818160000000006 7.0486189999999995 83.251059 -1 -1 0
200 1 0 0.576166 0.018053 84.565567 0 0 0
201 3 0 1.273796 7.344028999999999 84.610049 0 -1 0
202 3 0 1.229112 0.837021 84.551279 0 0 0
203 1 0 4.270888 8.039944 85.882963 -1 -1 0
204 2 0 3.2668540000000004 0.885138 85.935293 -1 0 0
205 2 0 3.6316710000000003 6.801822 85.845063 -1 -1 0
206 1 0 0.584784 8.101023999999999 87.312669 0 -1 0
207 2 0 1.71202 7.173219 87.313606 0 -1 0
208 3 0 1.034403 0.964934 87.471072 0 0 0
209 1 0 4.288856 7.998721 88.717569 -1 -1 0
210 2 0 3.3327220000000004 0.826796 88.748705 -1 0 0
211 2 0 3.5838250000000005 6.7299929999999994 88.725091 -1 -1 0
766 1 0 2.964474 4.090904 81.734257 0 0 0
768 3 0 3.696328 4.860041 81.79825 0 0 0
769 1 0 2.200766 4.070601 83.15093 0 0 0
770 2 0 1.348108 5.170615 83.193461 0 0 0
771 2 0 1.389552 2.932615 83.196877 0 0 0
772 1 0 3.023857 4.098087 84.491692 0 0 0
773 3 0 3.683054 3.266008 84.541679 0 0 0
774 3 0 3.449507 5.070336 84.430801 0 0 0
775 1 0 2.243502 3.996631 85.818856 0 0 0
776 2 0 1.257034 4.990547 85.806193 0 0 0
777 2 0 1.608352 2.744842 85.739669 0 0 0
778 1 0 2.929894 4.094847 87.243181 0 0 0
779 2 0 4.129314 3.145839 87.250866 0 0 0
780 3 0 3.492793 4.994425 87.379819 0 0 0
781 1 0 2.153605 3.972685 88.651431 0 0 0
782 2 0 1.246698 4.997053 88.720945 0 0 0
783 2 0 1.415248 2.816542 88.631245 0 0 0
212 1 0 0.597253 8.135015 90.07357 0 -1 0
213 3 0 1.260371 7.355853 90.112711 0 -1 0
214 3 0 1.143798 0.866364 90.037818 0 0 0
215 1 0 4.195499000000001 8.076931 91.401035 -1 -1 0
216 2 0 3.2889370000000007 0.994973 91.362532 -1 0 0
217 2 0 3.436344 6.936266 91.378774 -1 -1 0
218 1 0 0.59827 8.080843999999999 92.729141 0 -1 0
219 3 0 1.166392 7.189063999999999 92.705503 0 -1 0
220 3 0 1.28758 0.807269 92.769079 0 0 0
221 1 0 4.308917 0.076626 94.043948 -1 0 0
222 2 0 3.567514 1.245262 94.002087 -1 0 0
223 2 0 3.363652 7.174424999999999 94.143229 -1 -1 0
224 1 0 0.749287 8.107859 95.448816 0 -1 0
225 3 0 1.249792 7.200601999999999 95.374647 0 -1 0
226 2 0 1.792512 0.870811 95.461666 0 0 0
227 1 0 0.05813 8.062945 96.865432 0 -1 0
228 2 0 3.7015040000000003 1.042709 96.965049 -1 0 0
229 2 0 3.5654310000000002 7.000385999999999 96.850905 -1 -1 0
784 1 0 2.877939 4.043222 90.042575 0 0 0
785 3 0 3.521863 3.188375 90.172264 0 0 0
786 3 0 3.457734 4.922224 90.133807 0 0 0
787 1 0 2.091752 4.087256 91.417539 0 0 0
788 2 0 1.324339 5.226879 91.359533 0 0 0
789 2 0 1.234314 3.016172 91.422665 0 0 0
790 1 0 2.945166 4.059431 92.76464 0 0 0
791 3 0 3.470476 3.179326 92.671272 0 0 0
792 3 0 3.659421 4.829654 92.680265 0 0 0
793 1 0 2.193344 4.159611 94.07963 0 0 0
794 2 0 1.58806 5.455703 94.089939 0 0 0
795 2 0 1.125051 3.189927 94.100076 0 0 0
796 1 0 2.989621 4.012527 95.4876 0 0 0
797 3 0 3.503635 3.119461 95.459532 0 0 0
798 2 0 4.112735 4.993415 95.515483 0 0 0
799 1 0 2.242737 4.077145 96.846628 0 0 0
800 2 0 1.678489 5.370038 96.894165 0 0 0
801 2 0 1.247363 3.08997 96.824528 0 0 0
230 1 0 0.871029 7.975859 98.145375 0 -1 0
231 3 0 1.483198 7.0668809999999995 98.141462 0 -1 0
232 3 0 1.47948 0.67163 98.135925 0 0 0
233 1 0 0.008442 7.966590999999999 99.505716 0 -1 0
234 2 0 3.5244310000000003 0.910787 99.52026 -1 0 0
235 2 0 3.7159190000000004 6.819163 99.500539 -1 -1 0
236 1 0 0.70437 7.993529 100.894953 0 -1 0
237 3 0 1.420729 7.191002999999999 100.936248 0 -1 0
238 3 0 1.235507 0.764956 100.916287 0 0 0
239 1 0 4.272856 7.873124 102.173951 -1 -1 0
240 2 0 3.2475080000000003 0.58856 102.109947 -1 0 0
241 2 0 3.7049030000000003 6.607348999999999 102.137506 -1 -1 0
242 1 0 0.555527 8.042102 103.573613 0 -1 0
243 2 0 1.705333 7.109801999999999 103.629115 0 -1 0
244 3 0 1.090016 0.821071 103.614142 0 0 0
245 1 0 4.212081 7.973489 104.985103 -1 -1 0
246 2 0 3.1897140000000004 0.732032 104.960768 -1 0 0
247 2 0 3.551216 6.8003279999999995 105.071847 -1 -1 0
802 1 0 3.081159 3.931735 98.202017 0 0 0
803 3 0 3.544358 3.036761 98.105449 0 0 0
804 3 0 3.831972 4.678112 98.303984 0 0 0
805 1 0 2.280818 3.944149 99.525714 0 0 0
806 2 0 1.46489 5.068671 99.554305 0 0 0
807 2 0 1.412541 2.847906 99.413408 0 0 0
808 1 0 3.08315 3.913121 100.903396 0 0 0
809 3 0 3.784318 3.081218 100.908679 0 0 0
810 3 0 3.645282 4.824776 100.918566 0 0 0
811 1 0 2.330287 3.804406 102.252694 0 0 0
812 2 0 1.358289 4.763089 102.261456 0 0 0
813 2 0 1.63042 2.59486 102.198058 0 0 0
814 1 0 3.081137 3.86061 103.643587 0 0 0
815 2 0 4.044272 2.750129 103.697168 0 0 0
816 3 0 3.571209 4.814416 103.719423 0 0 0
817 1 0 2.269358 3.914687 105.080353 0 0 0
818 2 0 1.381773 4.94863 105.042311 0 0 0
819 2 0 1.530483 2.775008 105.121378 0 0 0
248 1 0 0.521797 0.009215 106.310922 0 0 0
249 3 0 1.202328 7.312717999999999 106.341877 0 -1 0
250 3 0 1.120663 0.88351 106.229405 0 0 0
251 1 0 4.3207130000000005 8.152622 107.738399 -1 -1 0
252 2 0 3.4356970000000002 1.096313 107.782958 -1 0 0
253 2 0 3.4926800000000005 7.005110999999999 107.793053 -1 -1 0
254 1 0 0.683823 0.018489 109.066579 0 0 0
255 3 0 1.217876 7.250300999999999 109.147551 0 -1 0
256 3 0 1.360217 0.847346 109.053856 0 0 0
257 1 0 4.373591 0.139957 110.427094 -1 0 0
258 2 0 3.815284 1.374546 110.445534 -1 0 0
259 2 0 3.3250030000000006 7.322454 110.407795 -1 -1 0
260 1 0 0.757571 8.05555 111.742702 0 -1 0
261 3 0 1.358812 7.144551999999999 111.68037 0 -1 0
262 2 0 1.901701 0.851403 111.776836 0 0 0
263 1 0 0.047862 8.111867 113.207284 0 -1 0
264 2 0 3.8169230000000005 1.139831 113.212577 -1 0 0
265 2 0 3.5352620000000003 7.1250659999999995 113.242087 -1 -1 0
820 1 0 3.065187 3.951631 106.400972 0 0 0
821 3 0 3.752083 3.165757 106.478098 0 0 0
822 3 0 3.709171 4.840084 106.29242 0 0 0
823 1 0 2.220146 4.041183 107.704818 0 0 0
824 2 0 1.464474 5.261769 107.646535 0 0 0
825 2 0 1.286688 2.996562 107.741886 0 0 0
826 1 0 3.046906 4.07308 109.065245 0 0 0
827 3 0 3.685491 3.197581 109.154027 0 0 0
828 3 0 3.760505 4.864653 108.95269 0 0 0
829 1 0 2.225672 4.199367 110.343701 0 0 0
830 2 0 1.620267 5.443562 110.271601 0 0 0
831 2 0 1.224891 3.269135 110.339161 0 0 0
832 1 0 3.025952 4.074329 111.774566 0 0 0
833 3 0 3.57519 3.134779 111.727605 0 0 0
834 2 0 4.058782 5.045771 111.762603 0 0 0
835 1 0 2.24953 4.07522 113.149688 0 0 0
836 2 0 1.538902 5.273267 113.227993 0 0 0
837 2 0 1.295659 3.097075 113.137813 0 0 0
266 1 0 0.813639 8.081831 114.528041 0 -1 0
267 3 0 1.376848 7.129452 114.613653 0 -1 0
268 3 0 1.550757 0.69799 114.50607 0 0 0
269 1 0 4.449125 0.061905 115.92679 -1 0 0
270 2 0 3.7797780000000003 1.280902 115.89666 -1 0 0
271 2 0 3.5106940000000004 7.207089999999999 115.91111 -1 -1 0
272 1 0 0.813829 8.040996999999999 117.272697 0 -1 0
273 3 0 1.47509 7.069208 117.258971 0 -1 0
274 3 0 1.410747 0.777674 117.250011 0 0 0
275 1 0 4.42788 7.905851999999999 118.572413 -1 -1 0
276 2 0 3.3834060000000004 0.704256 118.535413 -1 0 0
277 2 0 3.8158330000000005 6.656338999999999 118.487313 -1 -1 0
278 1 0 0.701561 7.9738549999999995 119.982065 0 -1 0
279 2 0 1.725854 7.006976999999999 120.096645 0 -1 0
280 3 0 1.188399 0.762104 120.05866 0 0 0
281 1 0 4.327909 7.8561499999999995 121.379867 -1 -1 0
282 2 0 3.3046140000000004 0.668084 121.365 -1 0 0
283 2 0 3.7196820000000006 6.595695999999999 121.43968 -1 -1 0
838 1 0 3.068513 3.958647 114.440082 0 0 0
839 3 0 3.702209 3.116976 114.430966 0 0 0
840 3 0 3.674576 4.832965 114.414244 0 0 0
841 1 0 2.245442 3.924436 115.786498 0 0 0
842 2 0 1.455506 5.071634 115.763589 0 0 0
843 2 0 1.325157 2.807537 115.798669 0 0 0
844 1 0 2.969772 3.951666 117.214773 0 0 0
845 3 0 3.6542 3.134116 117.242582 0 0 0
846 3 0 3.549014 4.830101 117.264538 0 0 0
847 1 0 2.245817 3.877652 118.528067 0 0 0
848 2 0 1.231435 4.832066 118.511259 0 0 0
849 2 0 1.553905 2.641512 118.455985 0 0 0
850 1 0 2.990957 3.920668 119.945393 0 0 0
851 2 0 4.004 2.929283 119.978747 0 0 0
852 3 0 3.598336 4.825956 120.033133 0 0 0
853 1 0 2.141791 3.846604 121.307457 0 0 0
854 2 0 1.047521 4.760055 121.304225 0 0 0
855 2 0 1.559268 2.59965 121.411623 0 0 0
858 3 0 3.50035 4.917355 122.489639 0 0 0
284 1 0 0.643104 8.035801 122.649057 0 -1 0
285 3 0 1.364657 7.308382999999999 122.593062 0 -1 0
286 3 0 1.156201 0.819406 122.536653 0 0 0
287 1 0 4.309849000000001 8.043446 124.11837 -1 -1 0
288 2 0 3.526057 1.015401 124.150425 -1 0 0
289 1 0 0.693945 7.995588 125.417074 0 -1 0
290 3 0 1.232293 7.124891999999999 125.354586 0 -1 0
291 1 0 4.260960000000001 7.899099 126.813865 -1 -1 0
292 2 0 3.3142760000000004 0.703772 126.739894 -1 0 0
293 2 0 3.663543 6.643600999999999 126.863484 -1 -1 0
294 1 0 0.628397 8.102774 128.100806 0 -1 0
295 3 0 1.452252 7.360866999999999 128.036154 0 -1 0
296 3 0 1.065367 0.93201 128.069477 0 0 0
297 1 0 4.389852 7.956072999999999 129.48352 -1 -1 0
298 2 0 3.4517520000000004 0.825375 129.623444 -1 0 0
299 2 0 3.7089030000000003 6.724256 129.568736 -1 -1 0
856 1 0 2.888568 4.006467 122.596341 0 0 0
857 3 0 3.664376 3.275517 122.558297 0 0 0
859 1 0 2.118733 3.945763 124.059378 0 0 0
860 2 0 1.482663 5.129785 124.060154 0 0 0
861 1 0 2.927687 3.772064 125.346297 0 0 0
862 3 0 3.337844 2.777071 125.297621 0 0 0
863 1 0 2.063044 3.796634 126.664459 0 0 0
864 2 0 1.316343 4.950222 126.678619 0 0 0
865 2 0 1.198064 2.734541 126.650225 0 0 0
866 1 0 2.898793 3.790307 128.030627 0 0 0
867 3 0 3.542704 2.938915 128.029422 0 0 0
868 3 0 3.507715 4.718428 128.100465 0 0 0
869 1 0 2.182498 3.836879 129.381771 0 0 0
870 2 0 1.39769 5.057967 129.387797 0 0 0
871 2 0 1.271881 2.816979 129.44464 0 0 0
300 1 0 0.792723 8.063858999999999 130.778259 0 -1 0
301 3 0 1.461262 7.255459999999999 130.852845 0 -1 0
302 3 0 1.363584 0.833566 130.799232 0 0 0
303 1 0 0.022097 8.066104999999999 132.175685 0 -1 0
304 2 0 3.6340000000000003 1.015154 132.199153 -1 0 0
305 2 0 3.6947990000000006 6.8642769999999995 132.281362 -1 -1 0
306 1 0 0.793831 0.021277 133.591624 0 0 0
307 3 0 1.618106 7.470549999999999 133.643322 0 -1 0
308 3 0 1.341309 0.964252 133.510203 0 0 0
309 1 0 0.080664 7.9968069999999996 134.938466 0 -1 0
310 2 0 3.6046400000000003 0.863785 135.036424 -1 0 0
311 2 0 3.8280890000000003 6.803998999999999 134.878097 -1 -1 0
312 1 0 0.966183 7.9983889999999995 136.260563 0 -1 0
313 2 0 1.973768 6.885883999999999 136.230367 0 -1 0
314 3 0 1.514215 0.7431 136.314073 0 0 0
315 1 0 0.190776 7.9840219999999995 137.645926 0 -1 0
316 2 0 3.7514550000000004 0.824965 137.619995 -1 0 0
317 2 0 3.8982100000000006 6.807333 137.735456 -1 -1 0
872 1 0 2.930094 3.825516 130.804989 0 0 0
873 3 0 3.50989 2.938196 130.838085 0 0 0
874 3 0 3.657051 4.613073 130.832905 0 0 0
875 1 0 2.066672 3.940992 132.084232 0 0 0
876 2 0 1.246045 5.070914 131.929019 0 0 0
877 2 0 1.211645 2.833743 132.078053 0 0 0
878 1 0 2.799185 4.032898 133.477151 0 0 0
879 3 0 3.641386 3.376692 133.464132 0 0 0
880 3 0 3.286796 5.047293 133.416762 0 0 0
881 1 0 2.060525 3.856134 134.833194 0 0 0
882 2 0 1.030599 4.734916 134.877797 0 0 0
883 2 0 1.533123 2.601921 134.791383 0 0 0
884 1 0 2.834689 4.000413 136.21112 0 0 0
885 2 0 4.022805 3.157532 136.262386 0 0 0
886 3 0 3.118651 4.949763 136.231117 0 0 0
887 1 0 2.090375 3.839539 137.65251 0 0 0
888 2 0 1.077105 4.811656 137.711959 0 0 0
889 2 0 1.461855 2.580609 137.735866 0 0 0
318 1 0 0.951633 8.073364999999999 138.980163 0 -1 0
319 3 0 1.680603 7.23598 138.942585 0 -1 0
320 3 0 1.542943 0.797582 139.008406 0 0 0
321 1 0 0.112281 8.077997 140.349745 0 -1 0
322 2 0 3.7932740000000003 1.09479 140.357689 -1 0 0
323 2 0 3.691498 7.004370999999999 140.301222 -1 -1 0
324 1 0 0.895439 8.048812 141.694109 0 -1 0
325 3 0 1.397157 7.129699 141.816609 0 -1 0
326 3 0 1.61982 0.739977 141.699388 0 0 0
327 1 0 0.087228 0.034151 143.051176 0 0 0
328 2 0 3.9285010000000002 1.241744 142.933397 -1 0 0
329 2 0 3.5184200000000003 7.262664999999999 143.019135 -1 -1 0
330 1 0 0.781717 8.123121 144.445272 0 -1 0
331 3 0 1.209723 7.142529999999999 144.536224 0 -1 0
332 2 0 2.02469 0.787211 144.462957 0 0 0
333 1 0 0.030059 0.046524 145.875751 0 0 0
334 2 0 3.8584920000000005 1.261601 145.953771 -1 0 0
335 2 0 3.3977090000000003 7.250052999999999 145.760424 -1 -1 0
890 1 0 2.877162 3.958207 138.946842 0 0 0
891 3 0 3.659541 3.252481 138.910116 0 0 0
892 3 0 3.337254 4.875109 138.895455 0 0 0
893 1 0 2.12234 3.90124 140.361644 0 0 0
894 2 0 1.07277 4.78804 140.387673 0 0 0
895 2 0 1.54879 2.6492 140.46395 0 0 0
896 1 0 2.887135 4.090792 141.749461 0 0 0
897 3 0 3.695845 3.410817 141.777337 0 0 0
898 3 0 3.327753 5.002244 141.727281 0 0 0
899 1 0 2.175476 4.128048 143.087578 0 0 0
900 2 0 1.546629 5.352794 143.043134 0 0 0
901 2 0 1.113079 3.211389 143.065673 0 0 0
902 1 0 2.948762 4.033065 144.501611 0 0 0
903 3 0 3.425649 3.069758 144.498428 0 0 0
904 2 0 4.005453 4.960802 144.451375 0 0 0
905 1 0 2.231027 4.103617 145.949357 0 0 0
906 2 0 1.572129 5.378943 146.051718 0 0 0
907 2 0 1.209168 3.10464 146.008949 0 0 0
336 1 0 0.732179 7.943465999999999 147.233117 0 -1 0
337 3 0 1.186619 6.978844 147.139077 0 -1 0
338 3 0 1.580185 0.455794 147.258286 0 0 0
339 1 0 4.399242 8.052164999999999 148.558138 -1 -1 0
340 2 0 3.592245 1.05729 148.48784 -1 0 0
341 2 0 3.4825640000000004 6.947025999999999 148.59203 -1 -1 0
342 1 0 0.690165 8.106667 149.966182 0 -1 0
343 3 0 1.337991 7.2485539999999995 149.958489 0 -1 0
344 3 0 1.390471 0.751342 149.983132 0 0 0