LAMMPS data file via write_data, version 2 Aug 2023, timestep = 0, units = real

1144 atoms
3 atom types

0.004494884885358541 4.442270115114638 xlo xhi
0.008236188322062965 8.139779811678029 ylo yhi
0.2639531078426103 260.86341089215085 zlo zhi

Masses

1 12.0107
2 18.998404
3 1.00794

Atoms # charge

600 3 0.2054770504338681 3.5982953385061864 4.694217424902282 5.740961893322015 0 0 0
34 3 0.1987574069116964 1.576343649613618 0.7743086924470365 8.2696444898652 0 0 0
603 2 -0.1457582762369161 1.58029407503075 2.6521837084620676 7.3280327570103445 0 0 0
17 1 0.08442401824851302 0.103486232040988 8.016139442641443 1.7354176101036478 0 -1 0
18 2 -0.1485826146676499 3.7186872054256668 1.0930875504136774 1.6699931913476616 -1 0 0
19 2 -0.1520633609893454 3.6261661910183207 6.937899330670644 1.6907998789992251 0 -1 0
20 1 -0.1483730338028507 0.8824965369065633 7.9545330776076755 3.1474081611260214 0 -1 0
21 3 0.2015606064836533 1.5062727374035103 7.097720947491341 3.195209743256775 0 -1 0
22 3 0.2033446952977975 1.3987317274788942 0.7309761485886209 3.2882815204594813 0 0 0
23 1 0.1176865344095632 4.402157293384475 7.792824301814175 4.374591837077035 -1 -1 0
24 2 -0.1443866761855386 3.4422512864210604 0.6589425184543961 4.30756082920385 0 0 0
25 2 -0.1461044195841351 3.7822867036811214 6.566616384997981 4.360087338295551 0 -1 0
26 1 -0.004469957664507489 0.7889211447914942 7.953892346054438 5.754539599744189 0 -1 0
27 2 -0.1436769962459833 1.8950832689398756 6.978677528891369 5.775018791313519 0 -1 0
28 3 0.2072128122864186 1.2140570079128536 0.8336597939039035 5.765333991255877 0 0 0
29 1 0.1190964752846469 4.436077993224904 7.876355431807123 7.110108623518341 -1 -1 0
30 2 -0.1456321387210646 3.4569362700520165 0.7427886200415982 7.121522597969763 0 0 0
31 2 -0.1471070355884153 3.6897352121247886 6.689298254532699 7.207517209265581 0 -1 0
586 1 -0.1552044877483831 3.185508112213724 4.071737709306252 0.3930467920386708 0 0 0
602 2 -0.1470840416628669 1.2735577392341062 4.835438298954143 7.201603349327255 0 0 0
601 1 0.1132881953139099 2.238657555695356 3.836371343321299 7.239515470262531 0 0 0
589 1 0.08351553534041868 2.3881648549409373 3.9342088735078624 1.706646916368622 0 0 0
590 2 -0.1527210562504327 1.4342060568834927 4.929351897152594 1.751798796081831 0 0 0
591 2 -0.1492798380700475 1.677480335106614 2.7444932646132836 1.5758225944993536 0 0 0
592 1 -0.1449063351264076 3.1186201339978648 3.918039477462117 3.1028255508843587 0 0 0
593 3 0.1988337281059137 3.962189359200128 3.2787693095862576 3.057830123867878 0 0 0
594 3 0.1901075557494481 3.6679830635230792 4.828554079352226 3.168359806094672 0 0 0
595 1 0.1182103776010245 2.297145658424404 3.73152947606363 4.405039230657099 0 0 0
596 2 -0.1465961173768794 1.2369367508867624 4.728946952035002 4.408578409661643 0 0 0
597 2 -0.1445003364978096 1.6351848541773515 2.4705149639720183 4.266616698168205 0 0 0
598 1 -0.005246753052165364 3.053175052152518 3.797023788500332 5.7442715082563485 0 0 0
599 2 -0.1432149265609962 4.095835355791381 2.8528737759199525 5.735294924678946 -1 0 0
588 3 0.1863028827948625 3.866247467881246 4.853598817858313 0.3694661106704211 0 0 0
16 3 0.1944907593790492 1.7152547912246539 0.6053291353150065 0.4275417708100769 0 0 0
14 1 -0.1520245541567896 0.9031874607286948 8.018483146027293 0.43691364732617854 0 -1 0
15 3 0.1870084702536417 1.3430725542165456 7.049521705960847 0.3748721306198701 0 -1 0
32 1 -0.1424038421902979 0.844486233641432 8.039300259144142 8.37674913812622 0 -1 0
587 3 0.1944983488130943 3.800794386394567 3.2005221828993355 0.35251964386229606 -1 0 0
605 3 0.2019444338111625 3.7995011340217575 3.282902956898443 8.404651918364845 0 0 0
33 3 0.1986731240879116 1.4546284589233087 7.213544335364218 8.435473920941547 0 -1 0
620 2 -0.1471256895685713 1.4908376617872312 5.375950755413853 15.37460199914433 0 0 0
606 3 0.1944515303387461 3.6104291779748245 4.971909084147739 8.429601364972337 0 0 0
35 1 0.08570627243842914 0.06054851016444426 8.100253927163283 9.776858166111259 0 -1 0
36 2 -0.1488226355975251 3.731315500083641 1.1152762157193308 9.738589069526268 0 0 0
37 2 -0.1525211373115505 3.568411096617961 7.059783842672097 9.773159032006557 0 -1 0
38 1 -0.1522012558806546 0.8046584002888372 8.095958023634871 11.16517861744777 0 -1 0
39 3 0.1922204001438202 1.3684587382312061 7.212013704950543 11.305763564989432 0 -1 0
40 3 0.2049170092312433 1.5343021569147786 0.6566566016462195 11.18519006992657 0 0 0
41 1 0.1163216028082077 0.022666467938187048 0.10549178473109821 12.454576457751472 0 0 0
42 2 -0.1416108110144828 3.875039454208875 1.4033668291225168 12.307830065759514 0 0 0
43 2 -0.1466722750599042 3.370432815886481 7.337981231181276 12.373817149185548 0 -1 0
44 1 0.005199909669389793 0.7014985901925227 8.127333547225067 13.89400450121864 0 -1 0
45 3 0.2080869657806972 1.0822175889006305 7.152449232203472 13.924099018165943 0 -1 0
46 2 -0.1385538505805773 1.8629410966522846 0.8026218189771395 13.87795661993172 0 0 0
47 1 0.1293798159151112 4.398296802557962 0.14974823119095437 15.3139665623662 -1 0 0
48 2 -0.1420599127313893 3.808412225400306 1.4209649479536381 15.413234327387952 -1 0 0
49 2 -0.1462143300924338 3.3963320942797663 7.3507160160889455 15.361461243750545 0 -1 0
604 1 -0.1481798306246597 3.070531902729392 4.032859286403245 8.472619678267085 0 0 0
619 1 0.1261616627320688 2.2142018157033547 4.194534604754014 15.361654578886533 0 0 0
621 2 -0.142979133992997 1.3044436242134962 3.159266656673492 15.306539607202323 0 0 0
607 1 0.08152659040780832 2.2747641033718606 4.0634115199860625 9.939268902752117 0 0 0
608 2 -0.15238258807335 1.4208864052377088 5.219245008355255 9.916310900412963 0 0 0
609 2 -0.1486837097698729 1.4616310023109165 2.9378157344696247 9.940572397640294 0 0 0
610 1 -0.1380936903780355 3.0632860472082464 4.091563057652056 11.266752978268805 0 0 0
611 3 0.2005646747569228 3.775079121885973 3.2050247752570526 11.258024214244298 0 0 0
612 3 0.1952592328971872 3.6879976678365254 4.999612712404035 11.315928132784409 0 0 0
613 1 0.1168816922824447 2.279311768286303 4.194004239980817 12.652661594851336 0 0 0
614 2 -0.1474296997756316 1.6066748152099724 5.345709284871431 12.583491842283108 0 0 0
615 2 -0.1423822593487443 1.2849358588781574 3.1713025473477905 12.65012930831529 0 0 0
616 1 -0.008469766770596928 3.052409817998977 4.189656654572057 14.007059947109726 0 0 0
617 3 0.2132047646747302 3.6942899638690707 3.3830192528933734 13.988956032454247 0 0 0
618 2 -0.1445011159468215 4.060510538288664 5.338366784517393 14.009798452735478 -1 0 0
50 1 -0.1434370921953171 0.8456947856912629 8.11970626994523 16.5634472162683 0 -1 0
639 2 -0.1439045979560227 1.60414925674046 2.386107762597988 23.520145023096774 0 0 0
622 1 -0.1563221951386053 2.9852915285351855 4.1223011461805745 16.689973399305924 0 0 0
53 1 0.06678352798439538 0.09252206659923065 8.089389889857685 17.94361726752341 0 -1 0
54 2 -0.1491329668896727 3.8175820094274453 1.1066228200947055 17.972490101727338 0 0 0
55 2 -0.1531168092970641 3.555733933469305 7.031248500795554 17.84874692245068 0 -1 0
56 1 -0.1514047489979994 0.7931523097004859 7.946148237450124 19.352058784320153 0 -1 0
57 3 0.1923686848747523 1.5637456353461892 7.290539397106029 19.23831009184058 0 -1 0
58 3 0.1967966075453623 1.2856686840037308 0.7770448820772654 19.42474388559259 0 0 0
59 1 0.1174547321561282 0.10533176437950818 7.76711360128924 20.70461480100392 0 -1 0
60 2 -0.1429878580075727 3.5096000247786 0.6146577294497904 20.77025956978758 0 0 0
61 2 -0.1454132503662315 3.9067737202479824 6.553719129064625 20.671907787500988 -1 -1 0
62 1 0.00540777650954192 0.8872726057965356 7.842148459886741 22.111668226647364 0 -1 0
63 2 -0.1424524565293158 1.9758756933828785 6.8773340361479205 22.032867020128 0 -1 0
64 3 0.2101431328792753 1.408842566737578 0.6927538057985039 22.07431720681409 0 0 0
65 1 0.121153022606175 0.16222209377979557 7.700808213490716 23.54606128790103 0 -1 0
66 2 -0.1452052226930988 3.5595705534061395 0.4749118763458396 23.58091936202504 0 0 0
67 2 -0.1451558162323171 4.008164934764812 6.429263388441805 23.566374329956094 0 -1 0
636 3 0.2090911207105526 3.4009248580623237 4.820613122910059 22.200568900461953 0 0 0
638 2 -0.1448749631528461 1.2446325573114003 4.5792612205689185 23.6086448961153 0 0 0
637 1 0.1145503456813219 2.2490510289609187 3.660884569559674 23.541376268048047 0 0 0
625 1 0.06543237147790151 2.105617546286004 4.125608740657121 17.993896395210044 0 0 0
626 2 -0.1529746841230787 1.2824269645080004 5.246648912841846 17.925628214936445 0 0 0
627 2 -0.1494784502350336 1.3234306674303413 2.9830615140944996 17.98838290837144 0 0 0
628 1 -0.1541667153670295 2.9604873850286433 4.191250660373192 19.402780007331952 0 0 0
629 3 0.1981206252755389 3.7727328739230215 3.4899869747432413 19.29974364503798 0 0 0
630 3 0.1935526684643043 3.412927482121031 5.11615776693 19.429236737159584 0 0 0
631 1 0.123906603965474 2.2702628611170206 3.8372279134602665 20.706484585050198 0 0 0
632 2 -0.1437966423240912 1.1487038867529034 4.654653637344744 20.868159181114464 0 0 0
633 2 -0.1428063979714974 1.796250701469008 2.5558700723140935 20.54245711479651 0 0 0
634 1 0.006246128247044612 3.0458265314000523 3.836342483813475 22.136337947407952 0 0 0
635 2 -0.1396718861021966 4.090759254715557 2.883218653332842 22.120785927038543 -1 0 0
52 3 0.2044912669755868 1.4466330193613919 0.8360945309636186 16.59528790194227 0 0 0
624 3 0.1962292110288325 3.5490959658128354 4.970481786960607 16.816754381664463 0 0 0
623 3 0.1990597861675174 3.530609631756827 3.248913494111785 16.768510107473674 0 0 0
51 3 0.1941519447414266 1.456059722857492 7.198172284266295 16.640430551151542 0 -1 0
68 1 -0.1457921690710026 0.9289751205536655 7.870188637741127 24.87549670270601 0 -1 0
641 3 0.1979204830124539 3.7267552624462272 2.9468660697317146 24.872772908602617 -1 0 0
655 1 0.1279938467248083 2.2959743964637935 3.9981613063594126 31.822125742227243 0 0 0
71 1 0.07734464812286575 0.11196107430985683 7.8573758072235576 26.231576406275124 0 -1 0
72 2 -0.15276402063509 3.7402862348047714 0.8369277163022532 26.20518391709581 0 0 0
73 2 -0.1505069866583479 3.6870257523188004 6.744685260758885 26.24229550489131 0 -1 0
74 1 -0.1494005952506594 0.8744221482940145 7.826429623097639 27.613937566910916 0 -1 0
75 3 0.1978439195611108 1.432591362833616 6.986871458818513 27.722429585069367 0 -1 0
76 3 0.1912213989845022 1.723413773501313 0.38528749270344387 27.554300918276063 0 0 0
77 1 0.1221129143677515 0.0856164544249442 8.05078753927583 28.936632635993302 0 -1 0
78 2 -0.1456892497554413 3.912791065561824 1.1709202583000142 28.85767301983864 -1 0 0
79 2 -0.1427054140187123 3.4980161538816334 7.128513077468508 29.01898795717937 0 -1 0
80 1 -0.003775623579078737 0.8922021376784973 8.007051070348474 30.33693118196475 0 -1 0
81 3 0.214054031592346 1.3231927794375964 7.130279465707947 30.384255099852428 0 -1 0
82 2 -0.1418295761240005 1.9661784134544469 0.8989872923860037 30.33979550722749 0 0 0
83 1 0.1232572220110671 0.10855750353306767 0.02713093486046065 31.72596789794548 0 0 0
84 2 -0.1460398045035297 3.91490843444442 1.226530323772293 31.705992070389662 0 0 0
85 2 -0.1413682038107352 3.5921317834004673 7.170551615602923 31.771584010454422 0 -1 0
654 2 -0.1379162027618479 4.065830348935945 4.974258916842714 30.36866432442561 -1 0 0
656 2 -0.1410131049585318 1.7598966539950212 5.262801814205524 31.989984531937353 0 0 0
657 2 -0.1462925512548269 1.2329987060767884 3.1035726259648793 31.83176112856398 0 0 0
643 1 0.07663504500628172 2.1822869152152995 3.839544554925129 26.25586793753123 0 0 0
644 2 -0.1497445257294389 1.393896793810585 4.96113472038979 26.250284331542243 0 0 0
645 2 -0.1516108183100019 1.3586153904918412 2.739572863299093 26.267290561227604 0 0 0
646 1 -0.1498552771157389 2.9584006723081027 3.7947630291515435 27.63281228500267 0 0 0
647 3 0.1925072915681186 3.3894966691079667 2.7922721354985454 27.665428855207338 0 0 0
648 3 0.2001803883527303 3.766320729802114 4.408382034094714 27.53663526628099 -1 0 0
649 1 0.1200952137789265 2.27115785855765 3.9988065325601596 28.99432083046168 0 0 0
650 2 -0.1417089589636093 1.6330773112958004 5.264486956312113 28.87632351881452 0 0 0
651 2 -0.1444576241817806 1.1963408166420082 3.047176305242861 28.98652172790909 0 0 0
652 1 0.003454021334884242 3.0412733476900655 3.9729797154152715 30.375704619971046 0 0 0
653 3 0.2085602919836503 3.651719300708275 3.1076634330529562 30.31781374873772 0 0 0
640 1 -0.1473813408105269 3.0138478994319735 3.772286130666663 24.856056977706885 0 0 0
69 3 0.197871349811253 1.6848335709888616 7.099266700765105 24.911881923094345 0 -1 0
642 3 0.1967925465607685 3.605250301845732 4.665502675318414 24.718730761376506 0 0 0
70 3 0.1929574775351481 1.4954947435065529 0.6760175828475949 24.838037074150634 0 0 0
86 1 -0.149326697843643 0.8396152881676164 8.120238354330908 33.10217188764287 0 -1 0
675 2 -0.1472384679619405 1.4464412495428487 2.6223763411328784 40.03511366423717 0 0 0
658 1 -0.1491193080465034 3.065840084567944 3.718330970115419 33.11301558606793 0 0 0
89 1 0.08202315304595992 4.421693780491376 7.99273108223073 34.402366370457614 -1 -1 0
90 2 -0.1548245861384763 3.6370036977674682 0.9696170853932696 34.44483550896573 -1 0 0
91 2 -0.1473711263820345 3.568987443914251 6.969065165826474 34.323085247356616 0 -1 0
92 1 -0.1468314444719025 0.7282073776794097 7.9296252589709875 35.80167588564982 0 -1 0
93 3 0.2043424609684832 1.4814761128454585 7.170379491275187 35.823381602338685 0 -1 0
94 3 0.1881533205329162 1.3440018798321844 0.6596367609328623 35.96718381683326 0 0 0
95 1 0.1195254229792462 4.330585600031474 7.84400207456263 37.10382338451107 -1 -1 0
96 2 -0.1483526052896683 3.32383227266712 0.6391016654398349 37.02914055964936 0 0 0
97 2 -0.1410659221218216 3.727596485800457 6.588395438299333 37.07100678750944 -1 -1 0
98 1 0.005347265693074333 0.6367042914868855 7.997961183257605 38.560463651427675 0 -1 0
99 2 -0.1392660115501902 1.8205273570298932 7.167183116215747 38.58648928251473 0 -1 0
100 3 0.207280680308237 1.0277267605148332 0.8438424246689944 38.602895127928456 0 0 0
101 1 0.1233146953807393 4.348328268215083 7.888393213525282 39.963233946536114 -1 -1 0
102 2 -0.1461324412104227 3.354242507187932 0.7383864453358127 40.01718547434433 0 0 0
103 2 -0.1430889406385792 3.657639039718662 6.739295754730608 40.050837447908464 -1 -1 0
673 1 0.1204460257825705 2.2036146781325 3.840629033983093 39.911766483645 0 0 0
674 2 -0.1440078497355955 1.2854514326004178 4.838327507448778 39.86313261283564 0 0 0
88 3 0.1933963159072901 1.4279146037923482 0.8562878342111302 33.2054591620378 0 0 0
661 1 0.07824711151528868 2.2366402176513502 3.8281340723172876 34.42917706361653 0 0 0
662 2 -0.147591337089315 1.5107926311173223 5.017508022921568 34.37421703949147 0 0 0
663 2 -0.154794273466199 1.2662174720860426 2.8347790083742495 34.42829045725163 0 0 0
664 1 -0.1500096130350091 2.9101990078059594 3.733686052479714 35.84800431541015 0 0 0
665 3 0.1915200192372428 3.467935749615682 2.8251987990609155 35.903969522985186 0 0 0
666 3 0.19712846735494 3.694723862339872 4.443367968555723 35.88515431489909 0 0 0
667 1 0.118996870701271 2.111219339558417 3.7250317815728153 37.17096433237111 0 0 0
668 2 -0.1429015254085224 1.222002450047682 4.7838623054807154 37.125884047049965 0 0 0
669 2 -0.1488706774634632 1.3900030838818238 2.5330427769311306 37.20295848181668 0 0 0
670 1 -0.00638921261465129 2.981766433724577 3.83233650326309 38.51305111582966 0 0 0
671 2 -0.145462831111905 3.965389421380726 2.7746408418538486 38.48939026091628 -1 0 0
672 3 0.2116173620085504 3.6030889073387917 4.706464344223725 38.57808910483744 0 0 0
660 3 0.2035873062421711 3.8517352899352644 4.463807538491892 33.188487939956886 0 0 0
87 3 0.2032395044996324 1.4918842298491377 7.293931819427971 33.05719353281868 0 -1 0
659 3 0.1911474450239684 3.5853286735518997 2.7884471162526374 33.06910098671263 0 0 0
104 1 -0.1446409390137113 0.6565646258632466 7.977252965978151 41.28361997260984 0 -1 0
691 1 0.1224698427074946 2.228780383475414 3.9318112037490947 48.0050564813296 0 0 0
693 2 -0.1443220648337913 1.261770757678574 2.949118853480324 47.97251459605058 0 0 0
107 1 0.07470859685648899 4.299732662376508 7.983767443708418 42.695405042199134 -1 -1 0
108 2 -0.151607749485019 3.523502085844406 0.9900705505590572 42.68247763407626 0 0 0
109 2 -0.1517269915853215 3.4525944437219107 6.888334821409232 42.69677195219303 0 -1 0
110 1 -0.1451116369225088 0.6729753302399285 7.923813195957644 44.03606428465731 0 -1 0
111 3 0.194326122028723 1.1486163656553312 6.931776711370115 44.02656779516617 0 -1 0
112 3 0.2004705886273119 1.453263003447648 0.5117259394329642 44.050109518479026 0 0 0
113 1 0.1233585338652576 4.368431962934084 8.059122797906383 45.379538861479126 -1 -1 0
114 2 -0.1442773794613678 3.7854554962360445 1.1650554697385298 45.37669893727191 -1 0 0
115 2 -0.1453908713452768 3.4139633960984686 7.151280329931181 45.317508597934626 0 -1 0
116 1 0.0004153612695633191 0.7011731503375314 7.875501433881363 46.71071356932254 0 -1 0
117 3 0.2114785078569688 1.0543053963131837 6.887302420683947 46.64476660930073 0 -1 0
118 2 -0.141078852591433 1.9306301768388503 0.69406347680503 46.734493646195645 0 0 0
119 1 0.1258860216345381 4.389137913955455 8.03734844789441 48.09165233885972 -1 -1 0
120 2 -0.1445462975342588 3.742893200298178 1.1361020059286424 48.05632136802282 -1 0 0
121 2 -0.1429204225727082 3.3969635056351595 7.042862750781419 48.145277969689786 0 -1 0
676 1 -0.1453392842999906 3.004095608304191 3.960849802651907 41.21571033886547 0 0 0
678 3 0.1957385036340674 3.7013742805598944 4.830584779343387 41.213061926319575 0 0 0
692 2 -0.1429687967586559 1.5056396637938496 5.140047262739804 48.10982166412321 0 0 0
679 1 0.07696409089092079 2.1740917701132405 4.0076234740616625 42.55340004762331 0 0 0
680 2 -0.1524589624003728 1.3914434944226903 5.2026443741801724 42.53233986554889 0 0 0
681 2 -0.152310459560652 1.3088463254745684 2.9215658902071535 42.51784500929837 0 0 0
682 1 -0.1590936676650864 2.9881390629471114 3.8925481302882097 43.89229321389835 0 0 0
683 3 0.1955262701037189 3.4001947251086673 2.9390776985796627 43.92083034264277 -1 0 0
684 3 0.1986224699570608 3.738928737835819 4.595506205263968 43.941876425659025 -1 0 0
685 1 0.1117008714564835 2.2174983353735143 4.030451404743786 45.18247029519406 0 0 0
686 2 -0.1461592174906375 1.5624458429728028 5.280407902868575 45.14438498387928 0 0 0
687 2 -0.1452082392647819 1.162116259894491 2.9923455223490154 45.18711707592434 0 0 0
688 1 -0.0007706644648043069 2.9821928749511253 3.916354190602737 46.5596422731009 0 0 0
689 3 0.2104385408234785 3.4670851626305503 2.977624804139073 46.56296042614779 0 0 0
690 2 -0.1419030993624378 4.118038724183425 4.864149305185048 46.60140128140287 -1 0 0
105 3 0.1990013438164025 1.4244603036078434 7.200559016494127 41.39112788096336 0 -1 0
677 3 0.1959201817788143 3.6288285053422733 3.0878283589670934 41.28918741427539 0 0 0
106 3 0.1947858744702299 1.202098894274107 0.7371021755141091 41.283488570598045 0 0 0
122 1 -0.1440678907001912 0.677690946196826 7.93259404821142 49.48500108158202 0 -1 0
710 2 -0.1439947004116416 1.206386471145046 4.85383744097668 56.25574654809349 0 0 0
124 3 0.1951533885156184 1.4058071794029614 0.5846716336226218 49.54181766841026 0 0 0
125 1 0.07537734225722698 4.324636905386207 8.056132455602093 50.8564584588742 -1 -1 0
126 2 -0.1528431560571473 3.523144114362633 1.06448591243734 50.73103119390035 0 0 0
127 2 -0.1483306926351317 3.4802747581542883 6.926403081694341 50.98805164180505 0 -1 0
128 1 -0.1530594214501145 0.6585180683777421 0.036495929698915144 52.22808811782923 0 0 0
129 3 0.2042898332314695 1.4199370250682999 7.391720621365631 52.23413485665162 0 -1 0
130 3 0.1926536222001401 1.1724929830957187 0.9370534357640264 52.333457353409834 0 0 0
131 1 0.12076293238435 4.265369560550544 7.8999207593190865 53.48762495822033 -1 -1 0
132 2 -0.146320707474777 3.2308893291161036 0.7038508058735201 53.573636983053404 0 0 0
133 2 -0.1438808738012085 3.7093637160556314 6.6659826534740825 53.390548836213284 0 -1 0
134 1 -0.006091325518976856 0.659320342332228 7.903716596922902 54.87241667475797 0 -1 0
135 2 -0.1413722238326131 1.7578447361591727 6.915685428429434 54.863374413434386 0 -1 0
136 3 0.2051452965264578 1.159264628221733 0.6700810827547853 54.941396161390635 0 0 0
137 1 0.1201430182082687 4.299488257442302 7.872500407295884 56.22539096194856 -1 -1 0
138 2 -0.1447656215143344 3.3314292576240594 0.7671538528183861 56.265895211972634 0 0 0
139 2 -0.1444609001765427 3.5931937409189936 6.641823277823697 56.30049670996335 -1 -1 0
694 1 -0.1522841916923341 3.0214687841134884 3.7656453949844835 49.31154900177852 0 0 0
711 2 -0.1439186948971047 1.4673779515098766 2.6154852451323354 56.29808899609526 0 0 0
696 3 0.2003913818579952 3.7937827166487916 4.461462355501869 49.33522123555209 -1 0 0
697 1 0.07439958378716985 2.340011728250133 3.9073399156920536 50.7566598611761 0 0 0
698 2 -0.1489528613224418 1.5741080611683316 5.055282000656268 50.78866872828029 0 0 0
699 2 -0.1534798427303766 1.3853192872281561 2.819268195732768 50.813343129574086 0 0 0
700 1 -0.1471894256652785 3.1560843677352004 3.85703524422576 52.09172638003861 0 0 0
701 3 0.1925757539785473 3.7549079179052507 3.0037180062721864 52.01844093890964 -1 0 0
702 3 0.2009367184615587 3.8530398911475947 4.66046066794491 52.10431243868233 0 0 0
703 1 0.1190788954905315 2.2770460130059007 3.8680834701618014 53.35354418578544 0 0 0
704 2 -0.1445162612654053 1.4887798970046455 5.0354130472993495 53.24577140392932 0 0 0
705 2 -0.1470892052468994 1.4329155864561407 2.80427549525246 53.31153489607285 0 0 0
706 1 0.003180945698799145 2.935367763659629 3.931157196865094 54.812411370730246 0 0 0
707 2 -0.1423851356663378 4.051193974053245 3.0280086460511635 54.89310058356284 -1 0 0
708 3 0.2119743266221473 3.4350707257714417 4.875891428370052 54.7690665436457 0 0 0
709 1 0.1261157520868977 2.1578278271946427 3.8639883234197074 56.23489553705645 0 0 0
695 3 0.1945620834516866 3.4707265548177864 2.8408800395709233 49.318637140183526 0 0 0
123 3 0.1985855348914312 1.3233149750028486 7.038300699469702 49.50025576880614 0 -1 0
140 1 -0.1450774883613764 0.6993498834559548 8.02249312385631 57.532360199299426 0 -1 0
141 3 0.199368532925908 1.4633034799086126 7.303797355186915 57.63977819832016 0 -1 0
713 3 0.2006530948551387 3.730828108232675 3.278890454043682 57.573595453146524 0 0 0
143 1 0.0773431994048674 4.311703000830201 8.115539347906441 58.88667949036583 -1 -1 0
144 2 -0.1492218148753064 3.564309970130995 1.128974964471197 58.86338958183857 -1 0 0
145 2 -0.152042742861156 3.372095670558457 7.094786526068183 58.811487734848136 0 -1 0
146 1 -0.1574610739069486 0.5869198765546381 7.969592334421394 60.267926004112496 0 -1 0
147 3 0.1821774400566571 1.2710347632283736 7.1400683711499795 60.21687400564467 0 -1 0
148 3 0.1903678112638856 1.2230301783733049 0.7050547484235437 60.32612486065244 0 0 0
149 1 0.07831421237144549 4.283583386665569 8.029148793333505 61.629098232352774 -1 -1 0
150 2 -0.1484883731013172 3.5624711089116423 1.0311606229405106 61.64748984527241 0 0 0
151 2 -0.1524161295342288 3.3649419549062767 7.027841167801911 61.6928661101524 0 -1 0
152 1 -0.1528790633012697 0.6583889378756721 7.913033960811085 62.982334070441155 0 -1 0
153 3 0.1846913414279013 1.2932487430224189 7.043126253095829 62.81321384822651 0 -1 0
154 3 0.1915929062358802 1.3328213526148587 0.5731045360790109 62.999221152969675 0 0 0
155 1 0.08399270966809971 4.3377064305759845 7.867270651694997 64.33103206761764 -1 -1 0
156 2 -0.1499593908069107 3.451814825240621 0.7777353931110529 64.3760788385721 0 0 0
157 2 -0.1527228539947763 3.5726126814476915 6.686188863811244 64.37180075752093 0 -1 0
712 1 -0.1464061430557764 2.968448611659358 4.032519023192317 57.49849399391479 0 0 0
142 3 0.1975138118398836 1.1893110960568205 0.8464298831123845 57.47732183010784 0 0 0
729 2 -0.1493472953710714 1.399192503119229 2.6034188659683273 64.16433591555261 0 0 0
715 1 0.08167648892916429 2.146068630728254 4.088940875341898 58.88686983309116 0 0 0
716 2 -0.1527241956962819 1.3017205565076257 5.205714204115829 58.88694000748793 0 0 0
717 2 -0.150020976419634 1.2676859854896603 2.999350291802514 58.98259956849192 0 0 0
718 1 -0.1582815895539549 2.9785552519141643 4.113076290028511 60.181360109382304 0 0 0
719 3 0.1914101443831165 3.7461078686868783 3.342706766305715 60.166072792271216 0 0 0
720 3 0.1855731820543207 3.44940003955365 5.0251001433902 60.22798073801697 -1 0 0
721 1 0.08411074098545042 2.1794793166779374 4.015170776606837 61.559875610594226 0 0 0
722 2 -0.1527782597525433 1.3479137663946847 5.090778311234247 61.62562445874052 0 0 0
723 2 -0.1491945444171057 1.3343297069732722 2.9250562049456623 61.47148206364307 0 0 0
724 1 -0.1524265000737772 2.9375984357769678 3.9197718457043123 62.906467649070706 0 0 0
725 3 0.19371125334291 3.6282726522646733 3.1186673349344747 62.85168004082541 0 0 0
726 3 0.1859779298354094 3.494040551109567 4.8099757013930375 63.05720751136481 0 0 0
727 1 0.08271066475452615 2.1306376201450457 3.7817119180585377 64.25783310570571 0 0 0
728 2 -0.1518438233784138 1.234838487765379 4.82291326697592 64.32443674412754 0 0 0
714 3 0.1975007891345932 3.4937623848171526 4.939180214255849 57.401772801695586 0 0 0
158 1 -0.1615278280655053 0.7742260948723337 7.943360762928211 65.6358708292174 0 -1 0
159 3 0.1889813148534031 1.4354797979292295 7.1641992553354825 65.50384783741237 0 -1 0
160 3 0.1903247938346399 1.3459048673691079 0.6732461203486756 65.64027962452457 0 0 0
161 1 0.0875196789738823 4.4126369148081785 7.8109122827451065 67.00030896961216 -1 -1 0
162 2 -0.150494707843351 3.560824360393967 0.7938369224180767 67.0545381336025 0 0 0
163 2 -0.1511974993303171 3.6676789183952243 6.651675775733093 66.95020056378712 0 -1 0
164 1 -0.1422570155008002 0.7821940231070045 7.761243561797487 68.31087241839049 0 -1 0
165 3 0.2026751334541617 1.405537042372562 6.9295164729442 68.27461615650947 0 -1 0
166 3 0.1969476627581803 1.434215054273962 0.5091284201095584 68.38033516794115 0 0 0
167 1 0.1207877251673769 4.390283726071987 7.686521881675444 69.67260591619957 -1 -1 0
168 2 -0.1438611691044296 3.4486530569149356 0.5564713975519102 69.54632609790579 0 0 0
169 2 -0.1440888143284157 3.7364133605733603 6.435111424890149 69.5826976013398 -1 -1 0
170 1 -0.003155536928268542 0.6412741759244482 7.868199909939336 71.0186804657036 0 -1 0
171 2 -0.1424882027221236 1.8177463564219762 6.846804840338331 71.12274302691495 0 -1 0
172 3 0.2111151094545848 1.1511721846688212 0.6571717182460949 70.96620141787035 0 0 0
173 1 0.1204992310257204 4.360640823969538 7.8218269104351625 72.46432035500287 -1 -1 0
174 2 -0.143521555482288 3.3156041421276994 0.5922281895090129 72.4270887826979 0 0 0
175 2 -0.1477485301100134 3.8075260330276954 6.5586240957454764 72.55113625948854 -1 -1 0
730 1 -0.1580743544233273 2.9374179782869234 3.8409072451626742 65.57538975644427 0 0 0
731 3 0.1882667409110964 3.6528335229425424 3.034955971106871 65.61909643787408 0 0 0
747 2 -0.1421721277849156 1.4817880997371131 2.5557322825922077 72.55180800718189 0 0 0
733 1 0.08354902460817346 2.14761889101805 3.8268505516039077 66.91119377083228 0 0 0
734 2 -0.1508247642275426 1.303093818456085 4.96876014096465 66.9112360950958 0 0 0
735 2 -0.1505847237839293 1.2827920912108624 2.686300496730066 66.89582080033217 0 0 0
736 1 -0.1469596005328366 2.938204747175264 3.815298629161477 68.2702316563965 0 0 0
737 3 0.2011891987793385 3.5851099111599307 2.985484789360913 68.22489475786983 -1 0 0
738 3 0.1992100635072163 3.5200133442153136 4.701043106386435 68.3809058897228 0 0 0
739 1 0.1185654767526701 2.1564809461539314 3.7058157135226604 69.60968490845194 0 0 0
740 2 -0.1442912772358191 1.2160867408637246 4.700089872328538 69.57122800424428 0 0 0
741 2 -0.143470508270283 1.427128705298249 2.4530612150893507 69.48664548207388 0 0 0
742 1 8.727672636051412e-05 2.905813601873871 3.6954948001198016 71.00050093150804 0 0 0
743 2 -0.1403032041068357 4.022943566308596 2.7163541590364133 70.97923474645825 -1 0 0
744 3 0.2060171547526797 3.4450416323282256 4.631390847563897 71.06344722968444 0 0 0
745 1 0.1086984026797377 2.1533456098872823 3.696637258931864 72.39475449608537 0 0 0
746 2 -0.1458620935927809 1.2062398823281812 4.719816415518572 72.27654423455233 0 0 0
732 3 0.1884394295568008 3.5317313222975697 4.709683189368448 65.50833674282876 0 0 0
750 3 0.1900615715424356 3.274100320033882 4.926933984603011 73.52878566590644 0 0 0
176 1 -0.1440109607724183 0.6665689053605901 7.931445841251035 73.8086678901494 0 -1 0
177 3 0.1902244559420568 1.4548310020420914 7.079373214581907 73.84982384404165 0 -1 0
178 3 0.1997307733589753 1.2703385561622904 0.6272062144923725 73.77396670033976 0 0 0
179 1 0.07156180605994385 4.249200901132955 7.976304336767156 75.14067627919297 -1 -1 0
180 2 -0.147616227443683 3.41749723869228 0.9582674828700247 75.018384336537 0 0 0
181 2 -0.1543814774648301 3.401856964709691 6.883014366743693 75.12952143291075 0 -1 0
182 1 -0.1445481107024683 0.5457579793056169 8.019505068973046 76.55248972303298 0 -1 0
183 3 0.1853952393671038 1.072373642664209 7.064686164664736 76.56299808401195 0 -1 0
184 3 0.2019800219062295 1.3952761327696481 0.632905395854422 76.46531576773064 0 0 0
185 1 0.122244441369792 4.277162543414928 0.13961253216504632 77.90234420731095 -1 0 0
186 2 -0.1414881317465408 3.7431215992127256 1.4386957968655472 77.77866013898594 0 0 0
187 2 -0.1455718943569019 3.16529119259781 7.375072199280148 77.97231577291323 0 -1 0
188 1 0.002641676104736736 0.6412100125675988 0.008259994011614213 79.25545708862863 0 0 0
189 3 0.2088776949250284 1.09407761417551 7.176342845829797 79.21582211958504 0 -1 0
190 2 -0.1397555925439803 1.76128489754646 0.9327164978066951 79.29252639940404 0 0 0
191 1 0.1206940277274515 4.299597563195741 0.0707432769006921 80.69529427927549 -1 0 0