 LAMMPS data file, charge style generated xyz_lammps.py by Wenchang Lu 

1144 atoms
3 atom types

0.000000   4.450643   xlo xhi 
0.000000   8.155121   ylo yhi 
0.000000   261.355065   zlo zhi 

Masses

3  1.007940
1  12.010700
2  18.998404

Atoms # charge

1 1 0.0 -0.069236 0.010157 -6.520977 
2 2 0.0 -0.837053 1.151134 -6.481722 
3 1 0.0 0.616512 -0.118339 -5.172097 
4 3 0.0 1.266840 -1.033217 -5.221652 
5 1 0.0 -0.181457 -0.052373 -3.780483 
6 2 0.0 -0.957582 1.121277 -3.762985 
7 2 0.0 -1.035290 -1.126201 -3.821132 
8 1 0.0 0.593648 -0.150716 -2.457577 
9 3 0.0 1.006628 -1.160728 -2.514969 
10 3 0.0 1.508122 0.498196 -2.433923 
11 1 0.0 -0.192978 -0.128220 -1.100799 
12 2 0.0 -0.956163 1.016763 -1.098708 
13 2 0.0 -1.118219 -1.141671 -1.060706 
14 1 0.0 0.622554 -0.224362 0.227165 
15 3 0.0 1.303598 -1.094839 0.125598 
16 3 0.0 1.248282 0.676348 0.282113 
17 1 0.0 -0.107484 -0.237877 1.587888 
18 2 0.0 -1.009159 0.881678 1.573622 
19 2 0.0 -0.867004 -1.391693 1.616807 
20 1 0.0 0.712393 -0.160025 2.977985 
21 3 0.0 1.468891 -0.967728 2.898467 
22 3 0.0 1.294505 0.772009 2.990739 
23 1 0.0 -0.015471 -0.250708 4.293239 
24 2 0.0 -1.029027 0.672107 4.312174 
25 2 0.0 -0.620952 -1.463807 4.293841 
26 1 0.0 0.847191 -0.136294 5.672800 
27 2 0.0 1.814266 -1.180060 5.750734 
28 3 0.0 1.310933 0.845227 5.625848 
29 1 0.0 -0.015521 -0.243588 7.010335 
30 2 0.0 -1.026318 0.665569 6.934134 
31 2 0.0 -0.637948 -1.526547 7.054640 
32 1 0.0 0.806890 -0.069508 8.264261 
33 3 0.0 1.596342 -0.741452 8.377153 
34 3 0.0 1.207836 0.931683 8.184027 
35 1 0.0 -0.013055 -0.091655 9.698872 
36 2 0.0 -0.835814 0.984462 9.650195 
37 2 0.0 -0.823619 -1.262705 9.752465 
38 1 0.0 0.802558 -0.007822 11.038849 
39 3 0.0 1.449622 -0.868937 10.998079 
40 3 0.0 1.398875 0.835862 10.945480 
41 1 0.0 0.053649 0.009581 12.398357 
42 2 0.0 -0.675900 1.181122 12.342621 
43 2 0.0 -0.934027 -0.966664 12.329219 
44 1 0.0 0.808896 -0.052676 13.851490 
45 3 0.0 1.275179 -0.979258 13.841660 
46 2 0.0 1.820828 1.046573 13.854254 
47 1 0.0 -0.004634 0.047718 15.181657 
48 2 0.0 -0.627869 1.284199 15.257871 
49 2 0.0 -1.015740 -0.889157 15.132853 
50 1 0.0 0.733735 -0.152993 16.519945 
51 3 0.0 1.220908 -1.091908 16.365154 
52 3 0.0 1.466466 0.562493 16.535764 
53 1 0.0 -0.099638 -0.097388 17.807977 
54 2 0.0 -0.792344 1.090682 17.820752 
55 2 0.0 -1.030884 -1.133880 17.779641 
56 1 0.0 0.692291 -0.131641 19.243956 
57 3 0.0 1.313686 -0.949805 19.294064 
58 3 0.0 1.313490 0.746543 19.302299 
59 1 0.0 -0.178274 -0.177132 20.489778 
60 2 0.0 -1.015047 0.894278 20.458391 
61 2 0.0 -0.933468 -1.358281 20.440584 
62 1 0.0 0.555449 -0.135051 21.973357 
63 2 0.0 1.631766 -1.074461 21.937752 
64 3 0.0 1.034902 0.798019 22.110774 
65 1 0.0 -0.167887 -0.281029 23.362481 
66 2 0.0 -1.271724 0.590775 23.449820 
67 2 0.0 -0.678084 -1.580773 23.426645 
68 1 0.0 0.649761 -0.031434 24.625899 
69 3 0.0 1.496221 -0.698329 24.679478 
70 3 0.0 1.042366 0.908480 24.555816 
71 1 0.0 -0.109835 -0.166433 26.048861 
72 2 0.0 -1.089097 0.792876 26.097552 
73 2 0.0 -0.781589 -1.338582 26.098990 
74 1 0.0 0.817232 -0.012075 27.319143 
75 3 0.0 1.397869 -0.893566 27.321831 
76 3 0.0 1.406598 0.868237 27.221836 
77 1 0.0 0.040791 0.088222 28.660595 
78 2 0.0 -0.579422 1.307057 28.586512 
79 2 0.0 -0.938172 -0.870957 28.673850 
80 1 0.0 0.777622 -0.032938 30.057450 
81 3 0.0 1.198924 -0.978538 30.081280 
82 2 0.0 1.968419 0.901111 30.010530 
83 1 0.0 -0.018983 0.136416 31.410789 
84 2 0.0 -0.527111 1.389147 31.468039 
85 2 0.0 -1.108305 -0.780892 31.387396 
86 1 0.0 0.735722 -0.072977 32.797796 
87 3 0.0 1.281577 -1.018375 32.654019 
88 3 0.0 1.463481 0.681775 32.897900 
89 1 0.0 -0.071106 -0.100949 34.126518 
90 2 0.0 -0.909886 1.002317 34.073884 
91 2 0.0 -0.865996 -1.271355 34.100033 
92 1 0.0 0.658374 -0.082261 35.513239 
93 3 0.0 1.412862 -0.837361 35.491270 
94 3 0.0 1.189698 0.837805 35.645608 
95 1 0.0 -0.113747 -0.264402 36.817960 
96 2 0.0 -1.147490 0.599682 36.812997 
97 2 0.0 -0.662002 -1.529134 36.727079 
98 1 0.0 0.624735 -0.152499 38.261938 
99 2 0.0 1.754644 -1.038752 38.251555 
100 3 0.0 1.004797 0.846492 38.343746 
101 1 0.0 -0.169536 -0.332069 39.640287 
102 2 0.0 -1.256273 0.575972 39.693120 
103 2 0.0 -0.729689 -1.557345 39.640468 
104 1 0.0 0.591643 -0.216862 40.972811 
105 3 0.0 1.274016 -1.044763 41.250523 
106 3 0.0 1.244673 0.610156 40.802586 
107 1 0.0 -0.157675 -0.047795 42.336538 
108 2 0.0 -0.883581 1.140594 42.269249 
109 2 0.0 -1.087834 -1.077540 42.416366 
110 1 0.0 0.596028 -0.098129 43.725629 
111 3 0.0 1.137142 -1.037800 43.764685 
112 3 0.0 1.410178 0.615579 43.648621 
113 1 0.0 -0.176055 0.048457 45.030462 
114 2 0.0 -0.786815 1.242499 45.005877 
115 2 0.0 -1.209021 -0.908971 44.988458 
116 1 0.0 0.622551 -0.069375 46.392350 
117 3 0.0 0.953133 -1.037443 46.336015 
118 2 0.0 1.704681 0.825282 46.371642 
119 1 0.0 -0.156491 -0.007187 47.834869 
120 2 0.0 -0.778143 1.218734 47.933044 
121 2 0.0 -1.097014 -1.032952 47.929774 
122 1 0.0 0.723097 -0.158981 49.036676 
123 3 0.0 1.291094 -1.048202 48.978120 
124 3 0.0 1.447840 0.602174 49.162385 
125 1 0.0 -0.029986 -0.176928 50.475916 
126 2 0.0 -0.756437 1.027977 50.424390 
127 2 0.0 -0.977662 -1.216795 50.525157 
128 1 0.0 0.781838 -0.166972 51.803567 
129 3 0.0 1.425941 -1.028280 51.720180 
130 3 0.0 1.496638 0.631976 51.781366 
131 1 0.0 0.077495 -0.258297 53.207715 
132 2 0.0 -0.860462 0.755602 53.200661 
133 2 0.0 -0.616370 -1.483307 53.161368 
134 1 0.0 0.883514 -0.207994 54.606839 
135 2 0.0 1.882171 -1.187493 54.671879 
136 3 0.0 1.380787 0.753390 54.495724 
137 1 0.0 0.057944 -0.182617 55.972304 
138 2 0.0 -0.899161 0.807969 55.915110 
139 2 0.0 -0.631282 -1.410457 56.085667 
140 1 0.0 0.760884 0.050738 57.293235 
141 3 0.0 1.554355 -0.715211 57.344300 
142 3 0.0 1.226272 0.981887 57.418546 
143 1 0.0 -0.126818 -0.217926 58.614107 
144 2 0.0 -1.076556 0.885500 58.680662 
145 2 0.0 -0.840168 -1.359936 58.454983 
146 1 0.0 0.576475 -0.307504 59.991835 
147 3 0.0 1.193546 -1.203973 60.009696 
148 3 0.0 1.268571 0.516251 60.014072 
149 1 0.0 -0.238890 -0.410423 61.319888 
150 2 0.0 -1.188278 0.707360 61.335066 
151 2 0.0 -0.975352 -1.595876 61.362611 
152 1 0.0 0.609592 -0.281156 62.686434 
153 3 0.0 1.365475 -1.038637 62.715862 
154 3 0.0 1.149876 0.581481 62.570906 
155 1 0.0 -0.131201 -0.213348 64.026381 
156 2 0.0 -1.090017 0.801741 64.023358 
157 2 0.0 -0.842577 -1.385696 64.083120 
158 1 0.0 0.753414 -0.094145 65.381214 
159 3 0.0 1.487077 -0.785319 65.340836 
160 3 0.0 1.299614 0.847436 65.279232 
161 1 0.0 0.094051 -0.124690 66.747801 
162 2 0.0 -0.856718 0.863061 66.743306 
163 2 0.0 -0.668939 -1.310914 66.783366 
164 1 0.0 0.862287 -0.045565 68.268441 
165 3 0.0 1.622852 -0.749113 68.389862 
166 3 0.0 1.401897 0.898253 68.338722 
167 1 0.0 0.039490 -0.139902 69.496265 
168 2 0.0 -0.912589 0.861635 69.376619 
169 2 0.0 -0.669729 -1.305702 69.476249 
170 1 0.0 0.750181 -0.029368 70.972951 
171 2 0.0 1.665642 -1.149191 70.999838 
172 3 0.0 1.378864 0.826583 71.016934 
173 1 0.0 -0.129030 -0.056414 72.304344 
174 2 0.0 -1.066725 0.903309 72.175979 
175 2 0.0 -0.810511 -1.250451 72.376592 
176 1 0.0 0.577788 0.145551 73.660093 
177 3 0.0 1.351733 -0.589707 73.686450 
178 3 0.0 1.008488 1.083647 73.643876 
179 1 0.0 -0.183536 -0.056262 75.027086 
180 2 0.0 -1.203008 0.867641 75.082238 
181 2 0.0 -0.763780 -1.318034 74.973462 
182 1 0.0 0.661788 0.071632 76.342269 
183 3 0.0 1.287193 -0.854525 76.407520 
184 3 0.0 1.319209 0.951979 76.343950 
185 1 0.0 -0.142302 0.117374 77.652894 
186 2 0.0 -0.795934 1.279822 77.609631 
187 2 0.0 -1.073684 -0.922402 77.578979 
188 1 0.0 0.624954 0.011954 79.096391 
189 3 0.0 1.183991 -0.881499 79.203692 
190 2 0.0 1.671004 0.951880 79.112935 
191 1 0.0 -0.189528 0.149710 80.463997 
192 2 0.0 -0.726668 1.387704 80.496832 
193 2 0.0 -1.227544 -0.762718 80.500942 
194 1 0.0 0.495477 -0.054868 81.808666 
195 3 0.0 0.905117 -1.012598 81.756051 
196 3 0.0 1.307786 0.593347 81.808747 
197 1 0.0 -0.237991 0.047487 83.203542 
198 2 0.0 -1.069469 1.192290 83.213664 
199 2 0.0 -1.068827 -1.106502 83.251059 
200 1 0.0 0.576166 0.018053 84.565567 
201 3 0.0 1.273796 -0.811092 84.610049 
202 3 0.0 1.229112 0.837021 84.551279 
203 1 0.0 -0.179755 -0.115177 85.882963 
204 2 0.0 -1.183789 0.885138 85.935293 
205 2 0.0 -0.818972 -1.353299 85.845063 
206 1 0.0 0.584784 -0.054097 87.312669 
207 2 0.0 1.712020 -0.981902 87.313606 
208 3 0.0 1.034403 0.964934 87.471072 
209 1 0.0 -0.161787 -0.156400 88.717569 
210 2 0.0 -1.117921 0.826796 88.748705 
211 2 0.0 -0.866818 -1.425128 88.725091 
212 1 0.0 0.597253 -0.020106 90.073570 
213 3 0.0 1.260371 -0.799268 90.112711 
214 3 0.0 1.143798 0.866364 90.037818 
215 1 0.0 -0.255144 -0.078190 91.401035 
216 2 0.0 -1.161706 0.994973 91.362532 
217 2 0.0 -1.014299 -1.218855 91.378774 
218 1 0.0 0.598270 -0.074277 92.729141 
219 3 0.0 1.166392 -0.966057 92.705503 
220 3 0.0 1.287580 0.807269 92.769079 
221 1 0.0 -0.141726 0.076626 94.043948 
222 2 0.0 -0.883129 1.245262 94.002087 
223 2 0.0 -1.086991 -0.980696 94.143229 
224 1 0.0 0.749287 -0.047262 95.448816 
225 3 0.0 1.249792 -0.954519 95.374647 
226 2 0.0 1.792512 0.870811 95.461666 
227 1 0.0 0.058130 -0.092176 96.865432 
228 2 0.0 -0.749139 1.042709 96.965049 
229 2 0.0 -0.885212 -1.154735 96.850905 
230 1 0.0 0.871029 -0.179262 98.145375 
231 3 0.0 1.483198 -1.088240 98.141462 
232 3 0.0 1.479480 0.671630 98.135925 
233 1 0.0 0.008442 -0.188530 99.505716 
234 2 0.0 -0.926212 0.910787 99.520260 
235 2 0.0 -0.734724 -1.335958 99.500539 
236 1 0.0 0.704370 -0.161592 100.894953 
237 3 0.0 1.420729 -0.964118 100.936248 
238 3 0.0 1.235507 0.764956 100.916287 
239 1 0.0 -0.177787 -0.281997 102.173951 
240 2 0.0 -1.203135 0.588560 102.109947 
241 2 0.0 -0.745740 -1.547772 102.137506 
242 1 0.0 0.555527 -0.113019 103.573613 
243 2 0.0 1.705333 -1.045319 103.629115 
244 3 0.0 1.090016 0.821071 103.614142 
245 1 0.0 -0.238562 -0.181632 104.985103 
246 2 0.0 -1.260929 0.732032 104.960768 
247 2 0.0 -0.899427 -1.354793 105.071847 
248 1 0.0 0.521797 0.009215 106.310922 
249 3 0.0 1.202328 -0.842403 106.341877 
250 3 0.0 1.120663 0.883510 106.229405 
251 1 0.0 -0.129930 -0.002499 107.738399 
252 2 0.0 -1.014946 1.096313 107.782958 
253 2 0.0 -0.957963 -1.150010 107.793053 
254 1 0.0 0.683823 0.018489 109.066579 
255 3 0.0 1.217876 -0.904820 109.147551 
256 3 0.0 1.360217 0.847346 109.053856 
257 1 0.0 -0.077052 0.139957 110.427094 
258 2 0.0 -0.635359 1.374546 110.445534 
259 2 0.0 -1.125640 -0.832667 110.407795 
260 1 0.0 0.757571 -0.099571 111.742702 
261 3 0.0 1.358812 -1.010569 111.680370 
262 2 0.0 1.901701 0.851403 111.776836 
263 1 0.0 0.047862 -0.043254 113.207284 
264 2 0.0 -0.633720 1.139831 113.212577 
265 2 0.0 -0.915381 -1.030055 113.242087 
266 1 0.0 0.813639 -0.073290 114.528041 
267 3 0.0 1.376848 -1.025669 114.613653 
268 3 0.0 1.550757 0.697990 114.506070 
269 1 0.0 -0.001518 0.061905 115.926790 
270 2 0.0 -0.670865 1.280902 115.896660 
271 2 0.0 -0.939949 -0.948031 115.911110 
272 1 0.0 0.813829 -0.114124 117.272697 
273 3 0.0 1.475090 -1.085913 117.258971 
274 3 0.0 1.410747 0.777674 117.250011 
275 1 0.0 -0.022763 -0.249269 118.572413 
276 2 0.0 -1.067237 0.704256 118.535413 
277 2 0.0 -0.634810 -1.498782 118.487313 
278 1 0.0 0.701561 -0.181266 119.982065 
279 2 0.0 1.725854 -1.148144 120.096645 
280 3 0.0 1.188399 0.762104 120.058660 
281 1 0.0 -0.122734 -0.298971 121.379867 
282 2 0.0 -1.146029 0.668084 121.365000 
283 2 0.0 -0.730961 -1.559425 121.439680 
284 1 0.0 0.643104 -0.119320 122.649057 
285 3 0.0 1.364657 -0.846738 122.593062 
286 3 0.0 1.156201 0.819406 122.536653 
287 1 0.0 -0.140794 -0.111675 124.118370 
288 2 0.0 -0.924586 1.015401 124.150425 
289 1 0.0 0.693945 -0.159533 125.417074 
290 3 0.0 1.232293 -1.030229 125.354586 
291 1 0.0 -0.189683 -0.256022 126.813865 
292 2 0.0 -1.136367 0.703772 126.739894 
293 2 0.0 -0.787100 -1.511520 126.863484 
294 1 0.0 0.628397 -0.052347 128.100806 
295 3 0.0 1.452252 -0.794254 128.036154 
296 3 0.0 1.065367 0.932010 128.069477 
297 1 0.0 -0.060791 -0.199048 129.483520 
298 2 0.0 -0.998891 0.825375 129.623444 
299 2 0.0 -0.741740 -1.430865 129.568736 
300 1 0.0 0.792723 -0.091262 130.778259 
301 3 0.0 1.461262 -0.899661 130.852845 
302 3 0.0 1.363584 0.833566 130.799232 
303 1 0.0 0.022097 -0.089016 132.175685 
304 2 0.0 -0.816643 1.015154 132.199153 
305 2 0.0 -0.755844 -1.290844 132.281362 
306 1 0.0 0.793831 0.021277 133.591624 
307 3 0.0 1.618106 -0.684571 133.643322 
308 3 0.0 1.341309 0.964252 133.510203 
309 1 0.0 0.080664 -0.158314 134.938466 
310 2 0.0 -0.846003 0.863785 135.036424 
311 2 0.0 -0.622554 -1.351122 134.878097 
312 1 0.0 0.966183 -0.156732 136.260563 
313 2 0.0 1.973768 -1.269237 136.230367 
314 3 0.0 1.514215 0.743100 136.314073 
315 1 0.0 0.190776 -0.171099 137.645926 
316 2 0.0 -0.699188 0.824965 137.619995 
317 2 0.0 -0.552433 -1.347788 137.735456 
318 1 0.0 0.951633 -0.081756 138.980163 
319 3 0.0 1.680603 -0.919141 138.942585 
320 3 0.0 1.542943 0.797582 139.008406 
321 1 0.0 0.112281 -0.077124 140.349745 
322 2 0.0 -0.657369 1.094790 140.357689 
323 2 0.0 -0.759145 -1.150750 140.301222 
324 1 0.0 0.895439 -0.106309 141.694109 
325 3 0.0 1.397157 -1.025422 141.816609 
326 3 0.0 1.619820 0.739977 141.699388 
327 1 0.0 0.087228 0.034151 143.051176 
328 2 0.0 -0.522142 1.241744 142.933397 
329 2 0.0 -0.932223 -0.892456 143.019135 
330 1 0.0 0.781717 -0.032000 144.445272 
331 3 0.0 1.209723 -1.012591 144.536224 
332 2 0.0 2.024690 0.787211 144.462957 
333 1 0.0 0.030059 0.046524 145.875751 
334 2 0.0 -0.592151 1.261601 145.953771 
335 2 0.0 -1.052934 -0.905068 145.760424 
336 1 0.0 0.732179 -0.211655 147.233117 
337 3 0.0 1.186619 -1.176277 147.139077 
338 3 0.0 1.580185 0.455794 147.258286 
339 1 0.0 -0.051401 -0.102956 148.558138 
340 2 0.0 -0.858398 1.057290 148.487840 
341 2 0.0 -0.968079 -1.208095 148.592030 
342 1 0.0 0.690165 -0.048454 149.966182 
343 3 0.0 1.337991 -0.906567 149.958489 
344 3 0.0 1.390471 0.751342 149.983132 
345 1 0.0 -0.141122 -0.084381 151.261131 
346 2 0.0 -1.017928 0.972322 151.230775 
347 2 0.0 -0.881824 -1.251037 151.174396 
348 1 0.0 0.710750 -0.091122 152.577844 
349 2 0.0 1.610252 -1.283120 152.540072 
350 3 0.0 1.352650 0.802950 152.535508 
351 1 0.0 -0.032236 -0.161636 154.032566 
352 2 0.0 -0.895118 0.890473 154.106212 
353 2 0.0 -0.842930 -1.287507 154.038323 
354 1 0.0 0.771323 -0.126724 155.333302 
355 3 0.0 1.441258 -0.902154 155.219324 
356 3 0.0 1.356582 0.767261 155.298636 
357 1 0.0 0.018745 -0.214123 156.746327 
358 2 0.0 -0.851670 0.876040 156.738283 
359 2 0.0 -0.739731 -1.361889 156.848005 
360 1 0.0 0.812007 -0.108821 158.130899 
361 3 0.0 1.319815 -1.008037 158.210172 
362 3 0.0 1.542328 0.664351 158.166788 
363 1 0.0 -0.012794 0.073567 159.402236 
364 2 0.0 -0.579012 1.320025 159.282943 
365 2 0.0 -1.084393 -0.830220 159.382292 
366 1 0.0 0.730005 -0.007323 160.800617 
367 3 0.0 1.159215 -0.953921 160.852488 
368 2 0.0 1.811674 0.964535 160.760420 
369 1 0.0 -0.056146 0.184574 162.206329 
370 2 0.0 -0.560401 1.515922 162.228390 
371 2 0.0 -1.165338 -0.653433 162.194339 
372 1 0.0 0.722377 -0.063932 163.481893 
373 3 0.0 1.175764 -1.030374 163.402203 
374 3 0.0 1.458539 0.691256 163.547800 
375 1 0.0 -0.087896 -0.054520 164.880108 
376 2 0.0 -0.903984 1.083010 164.827578 
377 2 0.0 -0.961220 -1.117363 164.841283 
378 1 0.0 0.635266 -0.056188 166.252822 
379 3 0.0 1.355655 -0.829100 166.314758 
380 3 0.0 1.174375 0.882711 166.252117 
381 1 0.0 -0.199539 -0.221459 167.566204 
382 2 0.0 -1.291822 0.682864 167.546060 
383 2 0.0 -0.725277 -1.463317 167.516028 
384 1 0.0 0.554820 -0.118803 168.923770 
385 2 0.0 1.737345 -1.054817 168.914490 
386 3 0.0 1.016725 0.866530 168.927955 
387 1 0.0 -0.189481 -0.177895 170.332144 
388 2 0.0 -1.180653 0.779933 170.438211 
389 2 0.0 -0.802426 -1.452585 170.428677 
390 1 0.0 0.615651 -0.084722 171.642405 
391 3 0.0 1.241925 -0.914618 171.602077 
392 3 0.0 1.156870 0.813792 171.540763 
393 1 0.0 -0.148741 -0.066178 173.055868 
394 2 0.0 -0.857091 1.125102 173.102754 
395 2 0.0 -1.075881 -1.080842 173.054733 
396 1 0.0 0.669865 -0.151890 174.423769 
397 3 0.0 1.186097 -1.102334 174.349277 
398 3 0.0 1.443714 0.616106 174.366274 
399 1 0.0 -0.040906 0.017753 175.757205 
400 2 0.0 -0.636079 1.283163 175.696055 
401 2 0.0 -1.057279 -0.941300 175.775549 
402 1 0.0 0.859149 -0.099100 177.076490 
403 3 0.0 1.394112 -1.029231 177.086942 
404 2 0.0 1.779275 1.020985 177.013460 
405 1 0.0 0.093093 -0.093471 178.472508 
406 2 0.0 -0.611446 1.143412 178.538514 
407 2 0.0 -0.905567 -1.061270 178.431039 
408 1 0.0 0.752375 -0.214276 179.829898 
409 3 0.0 1.426409 -0.968917 179.738512 
410 3 0.0 1.291643 0.725386 179.976106 
411 1 0.0 -0.047207 -0.251911 181.183043 
412 2 0.0 -0.965771 0.823063 181.110006 
413 2 0.0 -0.730719 -1.412720 181.257654 
414 1 0.0 0.800390 -0.194768 182.559265 
415 3 0.0 1.477924 -1.019872 182.578860 
416 3 0.0 1.354751 0.758473 182.582011 
417 1 0.0 0.023675 -0.258347 183.835224 
418 2 0.0 -1.001160 0.671153 183.776648 
419 2 0.0 -0.611847 -1.501316 183.891459 
420 1 0.0 0.770295 -0.096286 185.280513 
421 2 0.0 1.775154 -1.064889 185.296610 
422 3 0.0 1.180447 0.869290 185.186784 
423 1 0.0 -0.067449 -0.186363 186.664391 
424 2 0.0 -1.038380 0.807557 186.567809 
425 2 0.0 -0.705925 -1.360943 186.688307 
426 1 0.0 0.661783 -0.005411 188.007966 
427 3 0.0 1.419741 -0.690433 188.111213 
428 3 0.0 1.112989 0.962852 187.891802 
429 1 0.0 -0.130912 -0.014769 189.398888 
430 2 0.0 -1.063095 1.076783 189.432074 
431 2 0.0 -0.866306 -1.197638 189.435412 
432 1 0.0 0.666943 0.046583 190.737880 
433 3 0.0 1.391667 -0.717009 190.719474 
434 3 0.0 1.183148 1.047955 190.733955 
435 1 0.0 -0.175578 -0.119397 192.067772 
436 2 0.0 -1.160753 0.799985 192.060228 
437 2 0.0 -0.843597 -1.343188 191.973458 
438 1 0.0 0.600333 -0.025211 193.472926 
439 3 0.0 1.272135 -0.839502 193.488154 
440 3 0.0 1.154105 0.874153 193.539142 
441 1 0.0 -0.212573 -0.174201 194.785927 
442 2 0.0 -1.183500 0.811976 194.722175 
443 2 0.0 -0.849658 -1.376020 194.770203 
444 1 0.0 0.604755 -0.049573 196.161908 
445 3 0.0 1.227711 -0.904771 196.206610 
446 3 0.0 1.244780 0.796804 196.065440 
447 1 0.0 -0.107075 -0.059305 197.508529 
448 2 0.0 -0.748030 1.164455 197.522698 
449 2 0.0 -1.081793 -1.084241 197.510676 
450 1 0.0 0.730285 -0.187246 198.869935 
451 3 0.0 1.407729 -0.965679 198.751338 
452 3 0.0 1.366453 0.707529 198.948098 
453 1 0.0 -0.007923 -0.368510 200.196814 
454 2 0.0 -1.042368 0.551034 200.190707 
455 2 0.0 -0.595840 -1.649114 200.159503 
456 1 0.0 0.771288 -0.167154 201.586923 
457 2 0.0 1.847649 -1.090249 201.671483 
458 3 0.0 1.157131 0.858309 201.604097 
459 1 0.0 0.017213 -0.221091 203.004657 
460 2 0.0 -0.968349 0.806680 203.019327 
461 2 0.0 -0.673203 -1.459678 203.058251 
462 1 0.0 0.794014 -0.108027 204.282834 
463 3 0.0 1.398732 -1.067302 204.356205 
464 3 0.0 1.515050 0.610657 204.355189 
465 1 0.0 -0.025498 -0.119898 205.676496 
466 2 0.0 -0.955778 0.972049 205.655381 
467 2 0.0 -0.780615 -1.285131 205.682827 
468 1 0.0 0.719827 -0.058402 207.029322 
469 3 0.0 1.324379 -0.886398 207.086337 
470 3 0.0 1.447396 0.788589 206.923452 
471 1 0.0 -0.076443 0.024210 208.362805 
472 2 0.0 -0.811153 1.201829 208.235720 
473 2 0.0 -0.935440 -0.983016 208.355060 
474 1 0.0 0.632428 0.044879 209.745713 
475 3 0.0 1.167669 -0.850872 209.791939 
476 2 0.0 1.746113 1.129339 209.692426 
477 1 0.0 -0.017608 0.172137 211.177434 
478 2 0.0 -0.673621 1.378232 211.250245 
479 2 0.0 -1.038571 -0.792023 211.234266 
480 1 0.0 0.752684 -0.024862 212.539920 
481 3 0.0 1.364085 -0.860908 212.509504 
482 3 0.0 1.468056 0.761143 212.604279 
483 1 0.0 -0.084571 -0.077605 213.854637 
484 2 0.0 -0.962473 0.917099 213.818898 
485 2 0.0 -0.800982 -1.271618 213.834290 
486 1 0.0 0.717890 -0.048189 215.279098 
487 3 0.0 1.484008 -0.735077 215.218582 
488 3 0.0 1.184428 0.893111 215.383927 
489 1 0.0 -0.119847 -0.177735 216.547022 
490 2 0.0 -1.179584 0.738029 216.534706 
491 2 0.0 -0.733748 -1.447632 216.472490 
492 1 0.0 0.690483 -0.140147 217.897656 
493 2 0.0 1.741363 -1.145023 217.873092 
494 3 0.0 1.279665 0.746064 217.923401 
495 1 0.0 -0.074359 -0.182510 219.337827 
496 2 0.0 -1.037443 0.794472 219.293110 
497 2 0.0 -0.752945 -1.391149 219.451164 
498 1 0.0 0.703379 -0.097163 220.672314 
499 3 0.0 1.429595 -0.914483 220.646797 
500 3 0.0 1.313835 0.716863 220.697231 
501 1 0.0 0.020044 -0.029005 222.095649 
502 2 0.0 -0.781293 1.096078 222.158032 
503 2 0.0 -0.788728 -1.145214 222.206944 
504 1 0.0 0.829318 -0.067711 223.387669 
505 3 0.0 1.333566 -1.012217 223.374727 
506 3 0.0 1.515708 0.705651 223.357539 
507 1 0.0 0.072300 0.089274 224.756290 
508 2 0.0 -0.610444 1.235079 224.713816 
509 2 0.0 -0.902481 -0.922757 224.802298 
510 1 0.0 0.876038 0.033431 226.126821 
511 3 0.0 1.375182 -0.909789 226.147525 
512 2 0.0 1.847061 1.140644 226.069848 
513 1 0.0 0.067688 0.071856 227.544915 
514 2 0.0 -0.568279 1.290405 227.626824 
515 2 0.0 -0.887119 -0.845567 227.504408 
516 1 0.0 0.858901 -0.075983 228.847205 
517 3 0.0 1.372187 -1.006034 228.802205 
518 3 0.0 1.615613 0.717767 228.836325 
519 1 0.0 -0.046525 -0.017803 230.168724 
520 2 0.0 -0.877435 1.115759 230.117988 
521 2 0.0 -0.939027 -1.096676 230.157076 
522 1 0.0 0.741684 -0.042001 231.541838 
523 3 0.0 1.390631 -0.910568 231.570273 
524 3 0.0 1.364114 0.781485 231.462005 
525 1 0.0 -0.060371 -0.163702 232.849367 
526 2 0.0 -1.062157 0.810966 232.787650 
527 2 0.0 -0.749882 -1.366713 232.785662 
528 1 0.0 0.626624 -0.095441 234.259989 
529 2 0.0 1.703622 -1.059061 234.281529 
530 3 0.0 1.085131 0.923375 234.263059 
531 1 0.0 -0.144508 -0.185755 235.718965 
532 2 0.0 -1.225353 0.720465 235.656954 
533 2 0.0 -0.709936 -1.424427 235.858021 
534 1 0.0 0.655175 0.033903 236.973748 
535 3 0.0 1.483051 -0.700750 236.897567 
536 3 0.0 1.096514 1.074181 236.910614 
537 1 0.0 -0.061775 -0.071595 238.381365 
538 2 0.0 -0.970572 0.995225 238.431510 
539 2 0.0 -0.845697 -1.229849 238.442310 
540 1 0.0 0.788825 -0.027591 239.715913 
541 3 0.0 1.438721 -0.851648 239.666176 
542 3 0.0 1.417424 0.888194 239.700918 
543 1 0.0 0.007049 0.024916 241.027326 
544 2 0.0 -0.738207 1.183966 240.939172 
545 2 0.0 -0.859080 -1.044098 240.969071 
546 1 0.0 0.779312 0.036860 242.450283 
547 3 0.0 1.343237 -0.827369 242.371003 
548 2 0.0 1.747387 1.099771 242.415525 
549 1 0.0 0.012779 0.087644 243.866012 
550 2 0.0 -0.702577 1.290859 243.924328 
551 2 0.0 -0.888041 -0.964026 243.888844 
552 1 0.0 0.812695 -0.032149 245.185299 
553 3 0.0 1.372532 -0.923979 245.128285 
554 3 0.0 1.500738 0.771044 245.190513 
555 1 0.0 0.028426 -0.039009 246.538234 
556 2 0.0 -0.897812 1.011782 246.525246 
557 2 0.0 -0.742541 -1.173693 246.504432 
558 1 0.0 0.792549 0.086697 247.924537 
559 3 0.0 1.617870 -0.663925 247.897417 
560 3 0.0 1.412047 0.994615 248.025335 
561 1 0.0 0.003558 -0.039937 249.237059 
562 2 0.0 -0.964333 0.966833 249.236080 
563 2 0.0 -0.607279 -1.275669 249.170966 
564 1 0.0 0.776640 0.035133 250.626208 
565 2 0.0 1.890395 -0.838612 250.575026 
566 3 0.0 1.256851 1.009662 250.555474 
567 1 0.0 0.027614 -0.073291 252.070969 
568 2 0.0 -1.063193 0.791144 252.115567 
569 2 0.0 -0.537014 -1.365249 252.053212 
570 1 0.0 0.760627 0.070856 253.374695 
571 3 0.0 1.541539 -0.623411 253.354929 
572 3 0.0 1.345549 0.963107 253.351360 
573 1 0.0 2.087909 3.949649 -6.722495 
574 2 0.0 1.259966 5.041747 -6.735701 
575 1 0.0 2.834812 3.962882 -5.375959 
576 3 0.0 3.443404 3.101637 -5.290243 
577 1 0.0 2.057662 3.956899 -4.000434 
578 2 0.0 1.138791 5.030591 -4.009829 
579 2 0.0 1.280217 2.840093 -3.963171 
580 1 0.0 2.846363 4.050168 -2.627946 
581 3 0.0 3.621575 3.346079 -2.677658 
582 3 0.0 3.402744 4.947144 -2.604828 
583 1 0.0 2.122120 3.990040 -1.230378 
584 2 0.0 1.171222 5.015666 -1.188172 
585 2 0.0 1.383224 2.783987 -1.223963 
586 1 0.0 2.873879 3.985287 0.095320 
587 3 0.0 3.523397 3.103634 0.051490 
588 3 0.0 3.435096 4.942290 0.093350 
589 1 0.0 2.172290 3.985128 1.492118 
590 2 0.0 1.521882 5.204369 1.562289 
591 2 0.0 1.211308 3.004146 1.500226 
592 1 0.0 2.994400 3.856974 2.868622 
593 3 0.0 3.630146 2.954779 2.762471 
594 3 0.0 3.571822 4.739758 2.967267 
595 1 0.0 2.176754 3.744948 4.152208 
596 2 0.0 1.187824 4.677993 4.123676 
597 2 0.0 1.534971 2.525063 4.030069 
598 1 0.0 2.993976 3.840254 5.539299 
599 2 0.0 4.056133 2.836200 5.545312 
600 3 0.0 3.500848 4.792909 5.606517 
601 1 0.0 2.216273 3.842641 6.904307 
602 2 0.0 1.263894 4.811960 6.893273 
603 2 0.0 1.576071 2.612006 7.066737 
604 1 0.0 3.022934 3.962863 8.232404 
605 3 0.0 3.624433 3.044657 8.294774 
606 3 0.0 3.664899 4.822341 8.180708 
607 1 0.0 2.238922 4.026526 9.593775 
608 2 0.0 1.472907 5.159242 9.549178 
609 2 0.0 1.387345 2.972824 9.602494 
610 1 0.0 2.885450 4.009454 11.059532 
611 3 0.0 3.537238 3.154254 11.216974 
612 3 0.0 3.567768 4.810409 11.021048 
613 1 0.0 2.094357 4.217725 12.354918 
614 2 0.0 1.408913 5.422494 12.274207 
615 2 0.0 1.082933 3.250162 12.379886 
616 1 0.0 2.834671 4.168081 13.795735 
617 3 0.0 3.383752 3.247131 13.788136 
618 2 0.0 3.870352 5.140200 13.822469 
619 1 0.0 2.043346 4.165155 15.183619 
620 2 0.0 1.325051 5.379300 15.305695 
621 2 0.0 1.106038 3.140804 15.163444 
622 1 0.0 2.866306 4.040118 16.477026 
623 3 0.0 3.381117 3.116106 16.511016 
624 3 0.0 3.646205 4.735965 16.501714 
625 1 0.0 2.056145 4.077768 17.875487 
626 2 0.0 1.264112 5.196249 17.881520 
627 2 0.0 1.155212 3.016402 17.869570 
628 1 0.0 2.882129 3.988589 19.256134 
629 3 0.0 3.578453 3.217295 19.158952 
630 3 0.0 3.418589 4.877758 19.295662 
631 1 0.0 2.120286 3.873094 20.559087 
632 2 0.0 1.128264 4.852283 20.605893 
633 2 0.0 1.426025 2.644569 20.485359 
634 1 0.0 3.017263 3.911100 21.870281 
635 2 0.0 3.873583 2.784943 21.868608 
636 3 0.0 3.603864 4.804793 21.787294 
637 1 0.0 2.317705 4.005966 23.348887 
638 2 0.0 1.604968 5.179118 23.404641 
639 2 0.0 1.370873 2.978254 23.467380 
640 1 0.0 3.154848 3.950016 24.621090 
641 3 0.0 3.808035 3.059127 24.645867 
642 3 0.0 3.809006 4.779666 24.679306 
643 1 0.0 2.346527 3.983137 25.990408 
644 2 0.0 1.548373 5.115519 26.001526 
645 2 0.0 1.451994 2.888745 26.063216 
646 1 0.0 3.164412 3.929975 27.381218 
647 3 0.0 3.560550 2.905613 27.483055 
648 3 0.0 3.960934 4.681219 27.425574 
649 1 0.0 2.345493 4.099170 28.685505 
650 2 0.0 1.754107 5.358506 28.587815 
651 2 0.0 1.296823 3.207115 28.644609 
652 1 0.0 3.020817 4.002286 30.120861 
653 3 0.0 3.579162 3.088499 30.124612 
654 2 0.0 4.227711 4.891503 30.171998 
655 1 0.0 2.240608 4.094270 31.518017 
656 2 0.0 1.632053 5.365888 31.608848 
657 2 0.0 1.213043 3.178691 31.479540 
658 1 0.0 2.952589 3.863658 32.864992 
659 3 0.0 3.427448 2.897381 32.790371 
660 3 0.0 3.745826 4.543861 33.027952 
661 1 0.0 2.207105 3.898649 34.228666 
662 2 0.0 1.453150 5.054293 34.229710 
663 2 0.0 1.297216 2.843239 34.254996 
664 1 0.0 3.032615 3.906365 35.537193 
665 3 0.0 3.643506 3.006777 35.453320 
666 3 0.0 3.684319 4.779543 35.602283 
667 1 0.0 2.236904 3.827375 36.869863 
668 2 0.0 1.371846 4.915915 36.864848 
669 2 0.0 1.423433 2.696848 36.805443 
670 1 0.0 2.974436 3.796825 38.282879 
671 2 0.0 3.885425 2.684119 38.336480 
672 3 0.0 3.577383 4.652322 38.322852 
673 1 0.0 2.163012 3.861994 39.693095 
674 2 0.0 1.159207 4.883916 39.652042 
675 2 0.0 1.495144 2.653909 39.804187 
676 1 0.0 2.909172 3.975662 41.020884 
677 3 0.0 3.470795 3.050652 41.050105 
678 3 0.0 3.580116 4.861908 40.901823 
679 1 0.0 2.092677 3.922159 42.394627 
680 2 0.0 1.243432 4.974992 42.431813 
681 2 0.0 1.337671 2.745294 42.396363 
682 1 0.0 2.932699 3.958056 43.690185 
683 3 0.0 3.515887 3.044540 43.647878 
684 3 0.0 3.649600 4.743877 43.616321 
685 1 0.0 2.231952 4.106718 45.122146 
686 2 0.0 1.591936 5.302808 45.126542 
687 2 0.0 1.264024 3.128233 45.130301 
688 1 0.0 3.037292 4.073526 46.463675 
689 3 0.0 3.591143 3.173196 46.422425 
690 2 0.0 4.089208 5.192285 46.438322 
691 1 0.0 2.278955 4.065072 47.832793 
692 2 0.0 1.607402 5.237867 47.945546 
693 2 0.0 1.324745 3.072031 47.774245 
694 1 0.0 3.050922 3.882485 49.191126 
695 3 0.0 3.633604 3.028961 49.020210 
696 3 0.0 3.709256 4.751493 49.173090 
697 1 0.0 2.214167 3.904124 50.528552 
698 2 0.0 1.379612 5.016094 50.453992 
699 2 0.0 1.407041 2.794444 50.542408 
700 1 0.0 3.010885 3.985486 51.882336 
701 3 0.0 3.689123 3.151953 51.783502 
702 3 0.0 3.587032 4.835524 51.920655 
703 1 0.0 2.215971 3.850529 53.207794 
704 2 0.0 1.180990 4.768402 53.165920 
705 2 0.0 1.667387 2.611818 53.169749 
706 1 0.0 2.955930 3.923571 54.620762 
707 2 0.0 4.101827 2.931238 54.629307 
708 3 0.0 3.525335 4.832703 54.681561 
709 1 0.0 2.196932 3.760910 56.023501 
710 2 0.0 1.093720 4.614644 56.013730 
711 2 0.0 1.704263 2.501463 56.014796 
712 1 0.0 2.891418 3.938441 57.397361 
713 3 0.0 3.575178 3.160138 57.557643 
714 3 0.0 3.458388 4.808351 57.319995 
715 1 0.0 2.009316 3.896270 58.716282 
716 2 0.0 1.249926 5.010745 58.654822 
717 2 0.0 1.191437 2.818847 58.698021 
718 1 0.0 2.758296 3.864509 60.113371 
719 3 0.0 3.438999 3.103905 60.067604 
720 3 0.0 3.317182 4.753193 60.226002 
721 1 0.0 1.976020 3.843998 61.453486 
722 2 0.0 1.048681 4.861649 61.448218 
723 2 0.0 1.254278 2.608762 61.474905 
724 1 0.0 2.860063 3.880976 62.792964 
725 3 0.0 3.599401 3.116554 62.807861 
726 3 0.0 3.409969 4.759807 62.673196 
727 1 0.0 2.110312 3.949830 64.172684 
728 2 0.0 1.242714 5.063840 64.079977 
729 2 0.0 1.285715 2.750486 64.190604 
730 1 0.0 2.955561 4.000316 65.505672 
731 3 0.0 3.619494 3.121955 65.451001 
732 3 0.0 3.619628 4.838860 65.482240 
733 1 0.0 2.204188 3.990778 66.843350 
734 2 0.0 1.249606 4.992233 66.771910 
735 2 0.0 1.528762 2.766792 66.882556 
736 1 0.0 3.078602 4.126042 68.187697 
737 3 0.0 3.947515 3.507932 68.325051 
738 3 0.0 3.415061 5.098167 68.136466 
739 1 0.0 2.239508 3.943367 69.478107 
740 2 0.0 1.217571 4.911357 69.450527 
741 2 0.0 1.540272 2.690832 69.385369 
742 1 0.0 3.010290 3.984360 70.876772 