LAMMPS (2 Aug 2023 - Development - patch_2Aug2023-289-gafabb279a3)
  using 1 OpenMP thread(s) per MPI task
# REAX potential for
# .....

boundary        p p p
units           real

atom_style      charge
read_data       ./lmp.data
Reading data file ...
  orthogonal box = (0 0 0) to (4.446765 8.148016 261.12736)
  1 by 1 by 32 MPI processor grid
  reading atoms ...
  1144 atoms
  read_data CPU = 0.040 seconds
#read_data       ./final.lammps
replicate       1 1 1
Replication is creating a 1x1x1 = 1 times larger system...
  orthogonal box = (0 0 0) to (4.446765 8.148016 261.12736)
  1 by 1 by 32 MPI processor grid
  1144 atoms
  replicate CPU = 0.002 seconds

#change_box all triclinic
pair_style      reax/c NULL
pair_coeff      * * ../../../ForceFiledFiles/ffield.reax.FC C F H
Reading potential file ../../../ForceFiledFiles/ffield.reax.FC with DATE: 2013-06-28
WARNING: Changed valency_val to valency_boc for X (src/REAXFF/reaxff_ffield.cpp:296)
neighbor        2. bin
neigh_modify    every 10 delay 0 check no
fix             q all qeq/reax 1 0.0 10.0 1e-6 reax/c

variable        dt_MD equal 0.1
variable        dt_MIN equal 10*v_dt_MD
timestep        ${dt_MD}
timestep        0.1
thermo_style    custom step temp epair etotal press fmax fnorm density
thermo          20
write_data      init.lmpdata
System init for write_data ...
Neighbor list info ...
  update: every = 10 steps, delay = 0 steps, check = no
  max neighbors/atom: 2000, page size: 100000
  master list distance cutoff = 12
  ghost atom cutoff = 12
  binsize = 6, bins = 1 2 44
  2 neighbor lists, perpetual/occasional/extra = 2 0 0
  (1) pair reax/c, perpetual
      attributes: half, newton off, ghost
      pair build: half/bin/newtoff/ghost
      stencil: full/ghost/bin/3d
      bin: standard
  (2) fix qeq/reax, perpetual, copy from (1)
      attributes: half, newton off
      pair build: copy
      stencil: none
      bin: none
variable        Tdamp equal 100*dt
variable        Pdamp equal 100*dt
compute         Mu all property/atom xu yu zu
variable        qx atom q*c_Mu[1]
variable        qy atom q*c_Mu[2]
variable        qz atom q*c_Mu[3]
compute         Mx all reduce sum v_qx
compute         My all reduce sum v_qy
compute         Mz all reduce sum v_qz
thermo_style    custom step temp epair etotal press fmax fnorm density vol c_Mx c_My c_Mz
dump            dcd all dcd 200 dump.dcd
dump_modify     dcd unwrap yes
dump            qxyz all custom 20 dump.qxyz.txt id q xu yu zu
dump_modify     qxyz sort id
dump            xyz_form all xyz 100 dump.xyz
dump_modify     xyz_form sort id

variable        T0 equal 300
variable        T1 equal 300
timestep        ${dt_MD}
timestep        0.1
#fix             npt all npt temp ${T0} ${T1} ${Tdamp}  aniso 0 0 ${Pdamp}
fix             npt all npt temp ${T0} ${T1} ${Tdamp}  iso 0 0 ${Pdamp}
fix             npt all npt temp 300 ${T1} ${Tdamp}  iso 0 0 ${Pdamp}
fix             npt all npt temp 300 300 ${Tdamp}  iso 0 0 ${Pdamp}
fix             npt all npt temp 300 300 10  iso 0 0 ${Pdamp}
fix             npt all npt temp 300 300 10  iso 0 0 10
fix             mom all momentum 1 linear 1 1 1
run             40000

CITE-CITE-CITE-CITE-CITE-CITE-CITE-CITE-CITE-CITE-CITE-CITE-CITE

Your simulation uses code contributions which should be cited:

- pair reaxff command: doi:10.1016/j.parco.2011.08.005

@Article{Aktulga12,
 author = {H. M. Aktulga and J. C. Fogarty and S. A. Pandit and A. Y. Grama},
 title = {Parallel Reactive Molecular Dynamics: {N}umerical Methods and Algorithmic Techniques},
 journal = {Parallel Computing},
 year =    2012,
 volume =  38,
 number =  {4--5},
 pages =   {245--259}
}

- fix qeq/reaxff command: doi:10.1016/j.parco.2011.08.005

@Article{Aktulga12,
 author = {H. M. Aktulga and J. C. Fogarty and S. A. Pandit and A. Y. Grama},
 title = {Parallel Reactive Molecular Dynamics: {N}umerical Methods and Algorithmic Techniques},
 journal = {Parallel Computing},
 year =    2012,
 volume =  38,
 pages =   {245--259}
}

CITE-CITE-CITE-CITE-CITE-CITE-CITE-CITE-CITE-CITE-CITE-CITE-CITE

Per MPI rank memory allocation (min/avg/max) = 56.53 | 59.17 | 61.02 Mbytes
   Step          Temp          E_pair         TotEng         Press           Fmax          Fnorm         Density         Volume          c_Mx           c_My           c_Mz     
         0   0             -126468.79     -126468.79      26740.47       539.63897      2334.3018      2.320584       9461.2482      8.3876601      2.2953781      37.102386    
        20   108.03911     -126834.59     -126466.49      9296.6185      251.45669      1502.2171      2.3160414      9479.8052      8.4433471      2.3303972      36.951033    
        40   179.8071      -127056.1      -126443.49     -23215.876      203.13077      1138.5694      2.3093635      9507.2176      8.5560906      2.389269       36.042809    
        60   209.76584     -127136.75     -126422.06      8996.1051      232.09159      1417.2097      2.3180354      9471.6507      8.8280377      2.4384683      33.591493    
        80   217.33811     -127131.93     -126391.45      5813.8628      296.7358       1528.5918      2.3247344      9444.3569      9.2334281      2.4866067      30.298671    
       100   180.66364     -126978.39     -126362.86     -14840.826      423.60325      1730.7206      2.3253188      9441.9833      9.5419412      2.5711168      28.278031    
       120   227.79206     -127104.88     -126328.77      13656.308      405.43752      1725.4724      2.3296874      9424.2778      9.6768767      2.7034054      29.477622    
       140   232.18792     -127086.69     -126295.61     -10620.294      295.19256      1599.9634      2.330196       9422.2209      9.6392317      2.7800703      32.339573    
       160   240.86594     -127084.12     -126263.47      9559.2739      284.41635      1622.1428      2.3380765      9390.4634      9.7564858      2.8072319      35.28202     
       180   257.32722     -127105.51     -126228.78      330.44146      247.85062      1655.1476      2.3418691      9375.2558      10.136865      2.8357198      38.035184    
       200   236.0801      -126999.9      -126195.56     -7415.7118      210.89031      1781.7846      2.3460638      9358.4929      10.46657       2.8465337      40.825462    
       220   289.50003     -127147.24     -126160.9       12032.353      303.93398      1714.2295      2.3528976      9331.3119      10.609197      2.8563913      43.405918    
       240   268.38339     -127041.13     -126126.73     -8549.4399      378.35013      1779.8672      2.353904       9327.3225      10.522507      2.7992893      44.776365    
       260   257.49085     -126976.84     -126099.55      5695.9374      325.42441      1804.5093      2.3566043      9316.6348      10.484311      2.7113661      43.36201     
       280   277.92676     -127014.94     -126068.03      157.91258      479.98466      2042.0894      2.3549051      9323.3571      10.590901      2.6666445      39.586541    
       300   258.11119     -126915.93     -126036.53     -8725.219       763.4054       2274.5664      2.3514878      9336.9064      10.569067      2.6240643      36.026147    
       320   304.32229     -127039.95     -126003.1       13409.747      444.0991       1913.126       2.3554105      9321.3568      10.418521      2.5679101      34.860249    
       340   311.60943     -127035.66     -125973.99     -7143.9599      289.63643      1717.9545      2.3574648      9313.2341      10.263504      2.4650278      36.451976    
       360   296.20677     -126960.67     -125951.48      2985.9721      354.50105      1866.33        2.3625656      9293.1268      10.31394       2.3767339      39.517085    
       380   329.60982     -127053.94     -125930.94     -1449.1444      276.33055      1703.5038      2.3628997      9291.8126      10.588356      2.4104048      42.45866     
       400   300.79552     -126941.34     -125916.51      5296.2627      358.30385      1914.6179      2.3625714      9293.1041      10.717541      2.5035628      44.323105    
       420   326.97804     -127020.83     -125906.8      -9279.8552      321.98206      1835.5845      2.35683        9315.7424      10.57486       2.5424606      44.451704    
       440   325.97755     -127011.81     -125901.18      16280.135      236.30988      1750.009       2.3544798      9325.0414      10.194154      2.5270499      42.630898    
       460   304.68213     -126939.61     -125901.54     -18292.164      333.01306      1783.8206      2.342301       9373.5268      9.9030329      2.4976825      38.982328    
       480   308.96161     -126961.09     -125908.44      15290.065      546.61601      2061.1122      2.3455846      9360.4048      9.8372597      2.5249406      33.738063    
       500   272.50699     -126844.39     -125915.94      2300.4187      1248.3128      2755.1218      2.3435318      9368.604       9.8674355      2.5766156      28.494047    
       520   321.55874     -127012.32     -125916.75     -10049.409      607.80778      2222.515       2.3426729      9372.0388      9.9034306      2.5770864      24.446495    
       540   345.822       -127110.95     -125932.71      6752.6486      398.64832      1806.8751      2.3438211      9367.4476      9.8581874      2.5711239      22.991351    
       560   326.74846     -127059.18     -125945.93     -21649.66       354.23695      1819.2524      2.3354984      9400.8291      9.8244996      2.5424378      23.927022    
       580   323.52184     -127072.48     -125970.22      12553.806      514.24799      2112.6789      2.3351915      9402.0649      9.8846851      2.5097201      26.513937    
       600   285.7086      -126971.13     -125997.7      -8449.6027      338.288        1865.9743      2.3300697      9422.7317      9.9352491      2.5620844      29.48428     
       620   297.55039     -127030.96     -126017.19      9693.4579      371.86341      1853.9526      2.3305909      9420.6244      9.8999729      2.6290933      32.235057    
       640   289.3485      -127018.52     -126032.69     -9210.0255      293.86679      1758.6374      2.3244927      9445.3388      9.7390662      2.6658123      34.42718     
       660   264.28143     -126944.7      -126044.28      10800.096      585.43647      2108.9821      2.3203703      9462.1196      9.5277064      2.6813369      36.23191     
       680   273.51669     -126979.58     -126047.69     -8570.1588      251.96288      1807.4317      2.3144662      9486.2572      9.4183734      2.7172784      37.952657    
       700   275.20221     -126983.31     -126045.67      6889.4043      282.67127      1811.2724      2.3216114      9457.0613      9.4195578      2.7960513      39.102711    
       720   303.60981     -127069.97     -126035.55     -9333.4634      518.84187      2113.0475      2.3237907      9448.1924      9.5705443      2.9101777      39.195053    
       740   321.58777     -127120.38     -126024.71      8762.4219      267.99876      1796.2769      2.3259286      9439.5079      9.6831875      3.0193796      38.340409    
       760   298.83187     -127036.86     -126018.72     -7058.919       486.66436      2013.4775      2.3212517      9458.5268      9.6280879      3.1035152      36.982976    
       780   295.47898     -127020.18     -126013.47      5480.2619      422.50765      1957.9456      2.3217677      9456.4246      9.4679693      3.1960165      35.865713    
       800   301.81107     -127034.96     -126006.67     -5518.2254      444.32034      1898.3156      2.3252314      9442.3382      9.4249709      3.2552834      35.643861    
       820   312.83404     -127069.5      -126003.66     -4975.6457      855.82033      2433.662       2.3337783      9407.7581      9.6825615      3.2731928      36.765159    
       840   333.20518     -127137.42     -126002.17      12021.169      326.3634       1885.4994      2.341178       9378.0232      10.066827      3.2449516      38.341407    
       860   302.00258     -127037.48     -126008.53     -12947.762      760.32348      2300.0897      2.33604        9398.6495      10.237967      3.127618       38.751579    
       880   306.36437     -127062.9      -126019.1      -3636.5238      595.2439       1938.7491      2.3380922      9390.4004      10.165074      3.0092997      37.691257    
       900   286.74551     -127004.7      -126027.73      3720.8673      650.70671      2179.7781      2.3416452      9376.152       10.192207      2.885906       35.775616    
       920   306.20782     -127078.33     -126035.06     -967.09617      501.42229      1969.51        2.3477836      9351.6379      10.530236      2.7476521      33.854732    
       940   306.8058      -127089.33     -126044.02     -5717.6477      427.6875       1794.3282      2.3542044      9326.1322      10.919047      2.6672122      32.4184      
       960   273.07772     -126982.5      -126052.11      7180.7157      630.24238      2176.8363      2.3613766      9297.806       10.974022      2.6109785      31.275207    
       980   266.30391     -126960.51     -126053.19     -6041.2515      455.30848      2041.3403      2.3637615      9288.4252      10.718888      2.5652738      30.454968    
      1000   264.47921     -126951.18     -126050.08      5872.5135      666.1251       2266.1494      2.366107       9279.2174      10.522544      2.5964671      30.026676    
      1020   292.10097     -127030.92     -126035.72     -8552.1164      268.89108      1837.7067      2.3622428      9294.3965      10.692546      2.7095511      30.426919    
      1040   293.93861     -127017.72     -126016.25      17069.543      426.40063      2034.5801      2.3603778      9301.7403      10.931366      2.9058718      30.937249    
      1060   296.84053     -127010.07     -125998.72     -20364.732      433.0062       2079.4726      2.3529183      9331.23        10.846713      3.1781032      31.122327    
      1080   303.67662     -127016.78     -125982.13      23657.503      281.96483      1995.9626      2.3560586      9318.7925      10.424952      3.3751593      31.527447    
      1100   291.02976     -126958.01     -125966.46     -19365.496      391.20182      2045.4096      2.3471783      9354.0495      10.110604      3.4822985      33.506244    
      1120   316.72043     -127030.78     -125951.69      18047.096      342.77415      2031.976       2.3526352      9332.3525      10.147075      3.6345768      36.717779    
      1140   337.51603     -127091.03     -125941.09     -11416.842      228.21229      1776.0307      2.3526941      9332.1193      10.301762      3.7273284      38.953052    
      1160   341.42862     -127103.44     -125940.17      1079.1996      413.08735      1894.3545      2.3547337      9324.0358      10.222073      3.7255412      38.756739    
      1180   327.7352      -127067.75     -125951.13      10195.292      374.96653      1982.7516      2.34993        9343.0961      9.9202146      3.7542504      37.070871    
      1200   311.28971     -127029.87     -125969.29     -10517.712      331.97217      1886.6846      2.3361516      9398.2005      9.6776528      3.7441171      36.038805    
      1220   297.49284     -127002.22     -125988.64      7645.4632      599.05906      2217.0716      2.3289041      9427.4479      9.7432525      3.7472104      37.05028     
      1240   274.20462     -126937.96     -126003.73     -5578.8043      303.52647      2034.13        2.3275166      9433.0677      9.9620333      3.7974168      39.62549     
      1260   282.98508     -126977.88     -126013.73      5585.9529      285.33001      1943.3751      2.3336308      9408.3526      10.025353      3.7556127      41.382212    
      1280   288.24865     -126998.73     -126016.65     -5594.0554      317.71904      2039.4284      2.3330236      9410.8011      9.9089546      3.7073117      40.879225    
      1300   289.2043      -127000.47     -126015.13      5974.7552      309.56721      2035.6336      2.3321821      9414.197       9.7435124      3.6539355      39.368446    
      1320   302.09081     -127042.41     -126013.17     -5561.0688      332.29379      1958.7205      2.3295695      9424.7547      9.7174141      3.5646847      38.402884    
      1340   298.58598     -127027.41     -126010.11      139.23691      374.45844      2054.7218      2.3341935      9406.0845      9.8237192      3.5086598      37.131744    
      1360   295.70802     -127017.14     -126009.65      3505.5416      402.3743       2076.3459      2.3365383      9396.6454      9.9726986      3.4903842      34.49556     
      1380   300.61218     -127028.79     -126004.58     -5975.1517      267.27139      1998.0035      2.3319865      9414.9865      10.000596      3.435475       30.637198    
      1400   312.16554     -127064.73     -126001.16      4288.5837      472.40406      2141.6202      2.3323969      9413.3298      9.8298308      3.3709493      27.281925    
      1420   318.8918      -127090.03     -126003.55     -5113.1031      249.32852      1731.5818      2.3336846      9408.1357      9.6747751      3.4493983      26.430918    
      1440   291.11845     -126999.95     -126008.09      4656.5359      362.55586      2120.0782      2.3334727      9408.9902      9.6483696      3.6530833      27.960097    
      1460   297.89766     -127025.77     -126010.81     -4475.6514      355.26899      2002.7153      2.3295618      9424.7861      9.6667041      3.8249287      29.920507    
      1480   306.4575      -127057.82     -126013.7      -9897.3963      417.02294      1909.1318      2.3271124      9434.7063      9.5622861      3.8493707      30.589571    
      1500   299.25097     -127035.54     -126015.97      3739.2408      444.29807      2045.9534      2.3292105      9426.2074      9.3348233      3.8245254      29.605329    
      1520   296.85767     -127030.96     -126019.54     -596.57885      382.18914      1905.7948      2.3333034      9409.6729      9.2637858      3.8937046      28.761565    
      1540   292.179       -127015.62     -126020.14     -12160.605      193.82916      1759.0652      2.3379574      9390.9415      9.4976394      3.9979668      29.663063    
      1560   294.68691     -127023.88     -126019.86      14500.731      260.91393      1892.374       2.3444714      9364.8496      9.8660761      4.0827884      31.687525    
      1580   298.55063     -127036.05     -126018.87     -7495.3399      688.60486      2066.4632      2.3412569      9377.7069      10.018819      4.086558       33.433081    
      1600   306.20571     -127061.14     -126017.88     -16275.148      178.83937      1725.7033      2.3438741      9367.2357      9.8140847      4.0135607      34.223637    
      1620   308.25727     -127070.94     -126020.68      3933.2277      244.92691      1840.403       2.3500006      9342.8153      9.5694013      4.0047375      34.74486     
      1640   287.91592     -127002.69     -126021.74      15436.282      384.30208      1913.362       2.353919       9327.2632      9.6182709      4.0191742      36.287529    
      1660   289.88288     -127006.56     -126018.91     -17924.313      301.03827      1811.0047      2.3511171      9338.3785      9.9510543      3.983727       38.096938    
      1680   292.39369     -127014.58     -126018.37      3585.5836      314.87187      1857.1481      2.3560356      9318.8838      10.186542      3.8538833      38.794171    
      1700   282.97029     -126976.68     -126012.58      8797.4361      229.27018      1916.7841      2.3621006      9294.956       10.212899      3.7219931      38.899539    
      1720   291.45594     -126995.88     -126002.87     -15328.072      283.19595      1884.1128      2.362639       9292.8379      10.308718      3.7681818      39.384275    
      1740   287.80871     -126970.92     -125990.34      2575.2446      324.9747       1913.3573      2.3618445      9295.964       10.622894      3.8787718      40.316106    
      1760   292.46682     -126972.68     -125976.23      5458.872       324.70023      2050.6201      2.3554453      9321.2191      10.953603      3.9155261      40.960524    
      1780   304.61714     -126999.45     -125961.6      -7501.9297      418.65966      1951.7548      2.3536567      9328.3023      10.895472      3.8109424      40.934596    
      1800   313.49474     -127016.81     -125948.71      2820.3468      311.71077      1916.3173      2.3564618      9317.1981      10.435798      3.6579791      39.384711    
      1820   329.55367     -127063.72     -125940.91      4813.7987      373.88033      1875.8119      2.3512097      9338.0109      9.965284       3.6598092      36.0551      
      1840   327.35244     -127054.6      -125939.29     -2427.5648      301.10931      1934.098       2.3399823      9382.8153      9.7350821      3.7998838      32.248114    
      1860   316.91466     -127026.74     -125946.99     -2123.6984      420.52482      1955.463       2.3347371      9403.8946      9.6624307      3.9017193      30.185851    
      1880   306.7519      -127006.88     -125961.75      1798.3442      294.99515      1869.9266      2.3370187      9394.7138      9.5324588      3.8887036      30.552024    
      1900   282.1543      -126934.94     -125973.62      4043.0187      371.75438      1943.2843      2.3355223      9400.7331      9.3753685      3.8455648      31.940125    
      1920   289.84243     -126967.09     -125979.58     -531.92512      233.24433      1909.2571      2.3277768      9432.0133      9.3207306      3.9415364      32.935746    
      1940   291.79167     -126976.04     -125981.88     -4333.0733      236.41889      1862.5847      2.3228541      9452.0021      9.3300408      4.165202       33.308788    
      1960   294.76087     -126988.53     -125984.26     -1052.0088      248.33481      1909.0717      2.3252519      9442.2552      9.2556884      4.2862747      34.082169    
      1980   298.09077     -127003.17     -125987.55      7909.9073      208.21693      1824.6387      2.3279605      9431.2688      9.0649931      4.1454191      36.337161    
      2000   296.35107     -126999.03     -125989.35      12909.295      1211.5113      2705.9591      2.3254312      9441.527       8.9098354      3.9323323      39.266775    
      2020   300.67066     -127013.13     -125988.73      1116.709       382.79907      1916.2015      2.3215546      9457.2928      8.9330388      3.948255       41.052304    
      2040   298.32392     -127003.92     -125987.51     -9836.5341      257.78003      1868.9461      2.3191959      9466.9111      9.1610761      4.1893905      40.688481    
      2060   308.79227     -127038.76     -125986.69     -15606.472      426.25596      1905.3428      2.3198653      9464.1794      9.485009       4.4102184      38.813579    
      2080   306.62245     -127034.17     -125989.48      7133.4963      649.3056       2125.5408      2.3235244      9449.2752      9.7423686      4.3540761      37.227253    
      2100   292.74682     -126990.3      -125992.89      10910.195      257.95402      1917.6929      2.326046       9439.0316      9.8936588      4.1364814      36.95527     
      2120   288.9521      -126977.93     -125993.46     -18267.697      258.22168      1868.0417      2.3253009      9442.056       10.011671      4.0784348      37.945631    
      2140   280.15526     -126950.63     -125996.13     -2788.2705      283.46523      1937.5652      2.3321696      9414.2473      10.097679      4.173712       38.78348     
      2160   292.94643     -126988.3      -125990.22      20422.837      336.26564      1976.095       2.3384729      9388.8715      10.131511      4.2377558      37.877105    
      2180   282.8471      -126944.87     -125981.19     -4670.5482      252.4754       1935.3124      2.3367909      9395.6296      10.013562      4.0494116      35.355704    
      2200   282.05446     -126929.84     -125968.86     -12573.782      268.38199      1946.1088      2.3379247      9391.0732      9.7950383      3.6565588      33.3015      
      2220   294.94435     -126957.1      -125952.2       16448.205      458.05569      2080.2245      2.3452237      9361.8452      9.7164157      3.4313738      33.396995    
      2240   296.16863     -126947.21     -125938.15     -5024.7562      252.55616      1987.6839      2.3442387      9365.7791      9.8895778      3.4409505      35.022376    
      2260   308.28556     -126977.3      -125926.95     -7140.1203      515.93683      2077.4668      2.3436973      9367.9424      10.13023       3.4513494      36.606865    
      2280   321.27914     -127013.49     -125918.87      10523.823      237.76358      1865.7022      2.3448709      9363.254       10.226972      3.3207286      37.763708    
      2300   318.97006     -127002.11     -125915.36     -6069.6118      352.47299      1871.6204      2.3410942      9378.359       10.144743      3.1039195      38.984213    
      2320   315.55628     -126995.37     -125920.25     -3387.3283      285.9601       1790.4413      2.3436817      9368.0047      10.006032      3.0322759      40.038823    
      2340   308.38386     -126981.19     -125930.5       6994.3697      314.79647      1897.6878      2.3487691      9347.7141      10.002151      3.1135115      40.071344    
      2360   321.49663     -127035.52     -125940.16      1376.1341      278.20442      1825.0261      2.3505352      9340.6906      10.156748      3.1534427      37.821433    
      2380   305.57038     -126995.88     -125954.78     -5495.2696      309.90204      1975.7961      2.3516342      9336.325       10.2934        3.063476       33.470028    
      2400   304.33632     -127006.08     -125969.18     -3026.7838      643.49581      2127.9881      2.3519008      9335.267       10.346634      2.980662       29.693764    
      2420   308.46227     -127033.87     -125982.92      4821.0769      215.27111      1853.6164      2.3507477      9339.8459      10.370664      3.1151108      28.580191    
      2440   296.11029     -127002.72     -125993.86      2893.6474      534.20301      2035.5541      2.3433579      9369.2992      10.402631      3.42299        30.166512    
      2460   294.54742     -127005.66     -126002.12     -5348.2579      267.49539      1871.4263      2.3395897      9384.3896      10.415499      3.6315819      33.260977    
      2480   288.1069      -126989.8      -126008.2       1516.5733      524.07196      2035.7107      2.3420856      9374.3892      10.377547      3.611259       36.525102    
      2500   292.63413     -127007.2      -126010.17      5198.0916      188.6098       1857.337       2.3484522      9348.9753      10.317614      3.5366943      38.839477    
      2520   288.32861     -126993.1      -126010.75     -2791.0398      254.03902      1838.2148      2.3489047      9347.1743      10.302455      3.6060007      40.481893    
      2540   287.71599     -126986.98     -126006.71     -2212.4285      428.2821       1927.5406      2.3472114      9353.9173      10.279657      3.7548795      42.013918    
      2560   295.38066     -127006.86     -126000.48      7506.41        355.15734      1802.4377      2.3466995      9355.9577      10.204717      3.819943       42.764031    
      2580   279.38458     -126943.31     -125991.43     -7429.7409      202.18257      1864.1892      2.3386611      9388.1159      10.149263      3.6188576      41.949903    
      2600   296.65467     -126991.96     -125981.23      3432.8795      353.40721      1943.4985      2.3337647      9407.8127      10.142972      3.3180404      39.656777    
      2620   311.33672     -127029.52     -125968.77      8148.7552      377.58086      1863.8523      2.3310717      9418.6813      10.152956      3.2369162      37.527378    
      2640   311.63319     -127020.23     -125958.48     -16251.515      485.02116      1859.6771      2.3267363      9436.2313      10.112933      3.2590851      36.800983    
      2660   315.00816     -127027.28     -125954.03      21894.554      371.54519      1918.8344      2.3323878      9413.3668      9.9443681      3.1896966      37.228939    
      2680   306.16869     -126997.08     -125953.94     -12370.265      256.20432      1827.3973      2.3276397      9432.5687      9.7439603      2.9035755      38.534846    
      2700   314.38665     -127026.67     -125955.53     -3895.835       250.14077      1757.3963      2.3295389      9424.8786      9.6190714      2.5956921      40.375611    
      2720   302.32472     -126993.35     -125963.31      14041.597      281.46575      1919.9978      2.3317273      9416.033       9.6019377      2.5299337      42.140415    
      2740   291.83059     -126962.91     -125968.62     -19122.681      216.06168      1875.7244      2.330168       9422.3342      9.6797398      2.575937       43.228347    
      2760   306.92156     -127019.33     -125973.63      17707.363      332.89647      1911.2687      2.3350849      9402.4939      9.8026071      2.6165463      42.97596     
      2780   307.86935     -127026.73     -125977.79     -14113.9        429.59659      1967.4324      2.3273279      9433.8327      9.9160626      2.4748688      41.300608    
      2800   311.28826     -127045.53     -125984.95      14654.239      274.10138      1864.6893      2.3313325      9417.6278      9.9487816      2.3108659      38.675044    
      2820   303.13498     -127027.75     -125994.95     -9346.2124      402.66238      1885.961       2.3326014      9412.5047      9.9689833      2.485441       34.902422    
      2840   288.19916     -126988.08     -126006.17     -414.33746      233.7225       1865.5024      2.3385087      9388.7277      10.024322      2.8638484      30.684923    
      2860   291.6322      -127005.73     -126012.12      4460.4493      254.84112      1909.0908      2.3444481      9364.9426      10.080158      3.123903       27.601449    
      2880   286.80123     -126992.45     -126015.3      -4674.6002      287.64879      2019.921       2.3476647      9352.1114      10.081753      3.1286645      26.804913    
      2900   290.53036     -127005.53     -126015.67      7465.0264      196.29429      1885.6495      2.3502722      9341.7355      10.074423      2.9532228      28.927308    
      2920   298.63003     -127027.79     -126010.34     -8825.2213      422.5374       2019.434       2.345921       9359.0628      10.143951      2.9166197      32.607548    
      2940   301.76        -127037.41     -126009.3       7235.2229      346.77494      2053.2161      2.3464444      9356.975       10.277839      3.0724745      36.004892    
      2960   301.44499     -127036.02     -126008.98     -8182.0215      264.48848      1852.344       2.3429873      9370.7813      10.358297      3.1395912      38.345189    
      2980   290.80155     -126999.1      -126008.32      7983.4285      315.55574      1994.2024      2.3448744      9363.2398      10.265307      2.9404782      39.24294     
      3000   294.26414     -127008.61     -126006.04     -5903.169       371.28674      1985.2489      2.3444098      9365.0955      10.085165      2.6449381      38.490239    
      3020   302.63516     -127033.9      -126002.8      -581.90038      330.94288      1951.5793      2.3442954      9365.5525      9.9381481      2.6273114      36.623086    
      3040   295.8095      -127008.05     -126000.21      5654.3673      601.5278       2191.3559      2.3419894      9374.7742      9.8600248      2.921652       34.175621    
      3060   303.13851     -127030.84     -125998.02     -6409.5063      280.51781      1912.3916      2.3385924      9388.3917      9.7927825      3.1774855      31.395575    
      3080   305.97018     -127040.32     -125997.86      6199.575       377.43803      2014.1328      2.3390954      9386.3729      9.6857955      3.1644517      29.770528    
      3100   309.10534     -127052.19     -125999.05     -2832.7391      348.76767      1926.3708      2.338142       9390.2004      9.5804029      2.9938059      30.280892    
      3120   309.08584     -127054.25     -126001.18     -4441.3182      369.32045      1851.085       2.3384978      9388.7715      9.493564       2.9028742      33.187282    
      3140   299.82783     -127029.23     -126007.69      7039.9376      324.70169      1930.8313      2.3399284      9383.0315      9.4169716      2.9705663      37.300367    
      3160   304.93864     -127050.51     -126011.56      253.79637      301.02588      1860.9523      2.3345026      9404.8394      9.3164759      3.017723       40.87483     
      3180   301.15434     -127042.1      -126016.05     -8615.0268      244.33888      1865.0335      2.3320035      9414.9179      9.1308379      2.8503743      43.079855    
      3200   297.60978     -127037.05     -126023.08      15016.116      279.00007      1912.9137      2.3356367      9400.2727      9.003042       2.6041217      43.325932    
      3220   287.70115     -127008.27     -126028.05     -7707.7003      222.20858      1839.5257      2.3324146      9413.2586      9.1002387      2.5518457      41.758438    
      3240   282.85969     -126992.64     -126028.91      2279.7873      309.61951      1903.9796      2.3339137      9407.2123      9.3626488      2.68908        38.639694    
      3260   288.49964     -127009.03     -126026.09      4342.9783      198.88825      1840.9584      2.3347797      9403.7231      9.6524429      2.8126028      34.091035    
      3280   285.50114     -126990.66     -126017.94     -17672.417      357.89329      1930.7123      2.3316235      9416.4523      9.8279555      2.6803826      29.71547     
      3300   303.04502     -127038.24     -126005.75      23045.622      233.51605      1889.8017      2.3364941      9396.8232      9.917163       2.4259538      27.932754    
      3320   306.83873     -127040.55     -125995.13     -13561.452      611.56974      2097.8559      2.3298424      9423.6508      9.9716553      2.3557354      29.437629    
      3340   310.89352     -127046.37     -125987.13     -11496.155      261.65526      1818.2748      2.331477       9417.0442      9.9436146      2.5135543      33.092748    
      3360   311.06421     -127041.82     -125982.01      15147.881      245.91419      1855.6164      2.3343409      9405.4908      9.8486687      2.6744871      37.249959    
      3380   305.18627     -127020.16     -125980.37     -708.62109      263.90165      1812.9249      2.3323305      9413.5979      9.6912026      2.6200188      39.94441     
      3400   294.87345     -126983.2      -125978.55     -12773.958      257.30928      1981.1913      2.3332643      9409.8306      9.541753       2.504637       40.287755    
      3420   295.60635     -126982.99     -125975.84      11870.676      370.45364      1962.1192      2.3388969      9387.1696      9.4858208      2.6623881      38.793716    
      3440   297.26618     -126985.01     -125972.21     -444.84945      268.12602      1887.9995      2.3365313      9396.6735      9.4896357      3.0273495      36.544538    
      3460   302.17251     -126999.34     -125969.82     -9994.9669      232.86583      1837.4493      2.3335365      9408.733       9.4467993      3.2590038      34.303505    
      3480   299.01113     -126987.44     -125968.68      6678.9781      276.09919      1912.09        2.335709       9399.9817      9.3499396      3.2219932      32.152904    
      3500   293.32456     -126967.62     -125968.24      4098.5841      292.28836      1942.7599      2.336237       9397.8571      9.3325407      3.1538509      30.73294     
      3520   301.62945     -126992.23     -125964.56     -9131.3542      267.32877      1834.877       2.3346342      9404.3092      9.4077192      3.2506125      30.8182      
      3540   301.20736     -126990.23     -125964         9198.7207      238.4008       1868.2338      2.3396472      9384.1591      9.4804238      3.4959446      32.708567    
      3560   301.80575     -126991        -125962.72     -4322.7162      333.80343      1909.1762      2.3425994      9372.3328      9.5568492      3.7066763      35.975714    
      3580   305.96483     -127005.96     -125963.52     -739.36429      405.05821      2009.3642      2.3427395      9371.7726      9.669985       3.7540966      38.604982    
      3600   301.58889     -126992.65     -125965.12      5165.3274      289.34977      2009.0387      2.3401503      9382.1415      9.8426473      3.6723146      39.389987    
      3620   319.56636     -127055.73     -125966.94     -7976.5491      300.58933      1836.8111      2.3371737      9394.0906      9.9918743      3.5411935      38.599658    
      3640   313.7452      -127043.3      -125974.35      3132.1382      396.92392      2002.7324      2.3383958      9389.181       10.057266      3.4216327      37.189727    
      3660   307.84625     -127034.8      -125985.95      4750.0333      249.6454       1945.0636      2.3378898      9391.213       10.078276      3.3152979      35.906578    
      3680   311.64724     -127059.15     -125997.34     -9699.5899      260.41212      1902.9114      2.3385118      9388.7154      10.085351      3.1860385      34.434677    
      3700   291.2536      -127002.4      -126010.08      10058.079      437.3014       2030.0338      2.3459852      9358.8063      10.071132      3.0613527      32.774527    
      3720   299.40335     -127036.92     -126016.83     -7095.5475      255.84668      1863.3598      2.3466898      9355.9963      10.058302      2.9977542      31.734865    
      3740   294.75412     -127028.1      -126023.85      1679.3248      270.22842      1960.1557      2.3483417      9349.4151      10.036388      3.0230892      32.501972    
      3760   296.6528      -127040.05     -126029.33      6173.1539      348.97856      1967.148       2.3462336      9357.8158      10.029083      3.016065       34.769227    
      3780   309.21996     -127086.27     -126032.74     -10602.99       212.06653      1787.4938      2.3402993      9381.5441      10.052217      3.0362211      36.861833    
      3800   298.82419     -127056.25     -126038.14      5665.5777      294.41338      2015.2093      2.3372511      9393.7797      10.062507      3.1665272      37.385252    
      3820   292.36581     -127039.59     -126043.48     -1719.2238      257.78111      1928.3489      2.3334214      9409.1969      10.013387      3.3271951      36.434217    
      3840   294.1034      -127047.75     -126045.72     -10927.035      201.49664      1797.8427      2.3322196      9414.0455      9.9318663      3.4143791      34.913979    
      3860   291.67308     -127041.28     -126047.53      7797.8083      229.61203      1793.1175      2.3337931      9407.6984      9.8736019      3.4041892      33.571812    
      3880   281.09134     -127003.94     -126046.24      4086.946       235.99491      1912.9224      2.3349417      9403.0706      9.8511039      3.3646086      32.779766    
      3900   277.07136     -126983.98     -126039.98     -13322.56       190.36345      1856.8365      2.3354317      9401.0978      9.8630016      3.4625856      32.277625    
      3920   290.3895      -127017.08     -126027.7       577.1995       406.04931      1908.8228      2.3371283      9394.2729      9.9093488      3.7157355      32.961391    
      3940   294.59486     -127015.86     -126012.16      13781.59       293.28191      1986.8212      2.3352888      9401.6728      9.9617049      3.9067062      35.148812    
      3960   302.66437     -127029.07     -125997.88     -6922.5412      367.70959      1954.0082      2.3270497      9434.9603      9.9631227      3.8614613      37.605165    
      3980   303.87726     -127023.48     -125988.15     -10458.204      215.98541      1904.2977      2.3281285      9430.5885      9.8765815      3.7095216      38.887279    
      4000   310.88719     -127041.67     -125982.46      14882.759      228.5723       1917.2153      2.3383593      9389.3274      9.8054234      3.6213117      38.060538    
      4020   304.84832     -127020.33     -125981.69      8462.3675      313.24679      1989.5171      2.3395259      9384.6456      9.8389645      3.7069567      36.156647    
      4040   305.98973     -127021.28     -125978.75     -17267.398      284.46883      1959.5906      2.3323988      9413.3223      9.8678112      3.8712021      34.726356    
      4060   298.58083     -126998.54     -125981.26      13272.327      314.40612      2102.6345      2.3344317      9405.125       9.7473275      3.8967233      34.62784     
      4080   304.98032     -127023.58     -125984.49      4692.6301      298.17312      1922.5531      2.3359116      9399.1663      9.6651279      3.8283885      35.94473     
      4100   299.90903     -127007.58     -125985.77     -15208.9        314.92793      1957.7308      2.334376       9405.3494      9.8579999      3.9542379      38.386618    
      4120   284.90199     -126958.53     -125987.85      13887.636      434.48782      2120.5699      2.3393534      9385.3378      10.205272      4.2221723      41.509183    
      4140   288.81457     -126970.44     -125986.43     -7231.5276      514.12872      2037.3232      2.3391349      9386.2143      10.442513      4.3917293      44.112361    
      4160   292.96597     -126980.01     -125981.86     -5121.0806      214.15549      1924.3724      2.3396469      9384.1604      10.351256      4.3226109      44.981635    
      4180   302.97355     -127008.69     -125976.44      5863.3262      289.15822      1978.178       2.337349       9393.3861      10.082031      4.0679518      43.01473     
      4200   303.61023     -127002.85     -125968.43      6047.7907      275.58452      2012.228       2.330668       9420.3129      9.8899007      3.9134495      39.248099    
      4220   312.84535     -127028.27     -125962.38     -6525.8012      254.61221      1830.3971      2.3311245      9418.468       9.872218       3.8929167      35.440286    
      4240   317.15445     -127040.84     -125960.28     -6706.7682      240.0529       1845.2659      2.3377304      9391.8536      9.963333       3.869064       33.033929    
      4260   295.19501     -126966.48     -125960.73     -1987.8138      284.48465      1982.4535      2.3417455      9375.7503      9.9957444      3.7836572      32.487741    
      4280   308.02667     -127009.83     -125960.36      6626.4752      435.70501      1993.6358      2.3427659      9371.6668      9.9619686      3.6690758      33.022686    
      4300   308.23703     -127013.75     -125963.57      2122.1916      219.2662       1839.5272      2.3414619      9376.8862      9.9706349      3.6945486      33.982276    
      4320   301.33662     -126997.55     -125970.88     -4583.8511      315.79128      1929.6168      2.33982        9383.4659      10.091606      3.8543346      35.89871     
      4340   305.98935     -127023.05     -125980.52     -4389.243       227.74507      1913.1236      2.3384796      9388.8445      10.215285      3.8802547      38.819187    
      4360   291.00699     -126983.81     -125992.33      2629.5779      232.6665       1913.8217      2.3373174      9393.513       10.122249      3.6575669      41.428986    
      4380   294.15435     -127008.19     -126005.99      4724.5649      231.0462       1809.6643      2.3362098      9397.9667      9.8778645      3.415145       41.976691    
      4400   295.13428     -127024.16     -126018.62     -1485.2562      580.65042      2076.0263      2.3334375      9409.1322      9.6800962      3.4339217      39.567239    
      4420   286.74747     -127005.71     -126028.75     -4985.3486      179.62024      1869.695       2.3343713      9405.3681      9.6853073      3.7042418      35.180124    
      4440   302.15511     -127065.79     -126036.32      2059.5545      218.46381      1808.5415      2.3361431      9398.2347      9.8991605      3.9349866      31.572914    
      4460   291.96336     -127036.52     -126041.78     -866.46759      749.4004       2164.5334      2.3373733      9393.2885      10.122204      3.957517       30.146564    
      4480   291.78315     -127037.06     -126042.94     -1701.7497      251.99165      1863.2045      2.3390639      9386.4993      10.307147      3.9216163      30.674762    
      4500   291.59012     -127036.84     -126043.38      6018.5382      285.17933      1978.9372      2.3407138      9379.8829      10.418561      4.0287476      32.434291    
      4520   288.9453      -127028.46     -126044        -9865.4637      290.15385      1933.3119      2.3402525      9381.7317      10.431412      4.2654747      34.992867    
      4540   294.97586     -127044.92     -126039.92      15318.15       326.80724      1994.0666      2.3393233      9385.4585      10.414458      4.4436627      37.908628    
      4560   291.30422     -127026.81     -126034.31     -15140.991      204.85574      1894.9438      2.3333899      9409.3241      10.287723      4.4001174      39.646287    
      4580   298.214       -127044.72     -126028.68      2057.693       524.85673      2113.3936      2.3372719      9393.696       10.127859      4.236502       39.078445    
      4600   307.12507     -127065.14     -126018.74      15832.025      272.88719      2010.2498      2.3433434      9369.3574      10.083236      4.1861072      36.283465    
      4620   294.68216     -127013.8      -126009.79     -21797.107      412.71411      2042.9037      2.3383292      9389.4484      10.142733      4.2470639      32.142744    
      4640   305.85386     -127048.05     -126005.98      16143.887      264.33325      1931.6363      2.3438035      9367.5181      10.245915      4.2499653      28.475895    
      4660   297.22389     -127010.88     -125998.22     -5400.286       219.75949      1953.8327      2.3389843      9386.8188      10.309172      4.0585841      26.536343    
      4680   299.31029     -127012.65     -125992.88      2766.6042      273.72623      1940.0902      2.3374316      9393.0541      10.286475      3.8407526      26.213912    
      4700   310.69805     -127048.08     -125989.51      7673.5213      404.38978      1976.8622      2.3398624      9383.2961      10.193514      3.7288718      27.485804    
      4720   307.88505     -127036.59     -125987.6      -17104.627      264.51444      1935.9712      2.3367597      9395.7548      10.032231      3.6660102      30.121522    
      4740   309.13557     -127042.55     -125989.3       9272.0073      236.94672      1914.6867      2.336815       9395.5327      9.8586         3.5355491      33.240953    
      4760   298.52313     -127009.38     -125992.29      6510.3758      225.46471      1967.6292      2.3347324      9403.9135      9.7192904      3.28147        35.532512    
      4780   297.18191     -127003.73     -125991.21     -13178.625      270.98117      1875.1968      2.332752       9411.8971      9.6476155      3.0603237      35.950821    
      4800   298.23359     -127009.59     -125993.48      3460.8069      206.74444      1896.8265      2.3380579      9390.5381      9.7201608      3.0063098      34.249441    
      4820   298.96925     -127012.37     -125993.76      8690.3629      370.787        2063.5439      2.3389075      9387.1268      9.8998011      3.0159824      30.967944    
      4840   303.90252     -127027.4      -125991.99     -10103.64       217.78764      1852.663       2.3364075      9397.1715      10.035307      3.0044153      27.219789    
      4860   308.47777     -127043.08     -125992.08      2742.5235      326.90849      1875.8802      2.3393199      9385.4722      10.039043      2.9998193      24.526244    
      4880   301.36792     -127020.89     -125994.11      7176.2693      283.60366      1967.0081      2.3395701      9384.4684      9.9259909      3.027266       23.892754    
      4900   293.31104     -126995.74     -125996.41     -7526.2068      269.63525      1844.7515      2.3368087      9395.5578      9.8057262      3.1780814      25.381907    
      4920   280.71395     -126955.95     -125999.54     -421.266        397.23723      1894.612       2.3367714      9395.7078      9.7549683      3.3761113      28.428698    
      4940   281.09518     -126952.28     -125994.58      7670.1803      231.32442      1973.6227      2.3361088      9398.3729      9.7322113      3.4823993      31.749439    
      4960   291.34867     -126977.93     -125985.28     -5886.738       611.79894      2187.4947      2.3330911      9410.529       9.7029549      3.4812218      34.449726    
      4980   306.04494     -127016.56     -125973.85     -734.6756       269.02595      1917.3197      2.336379       9397.2858      9.7333036      3.437585       36.790866    
      5000   316.3329      -127042.58     -125964.81      6470.1875      377.73739      1935.8048      2.3387802      9387.638       9.861021       3.4570924      38.070553    
      5020   306.75368     -127004.79     -125959.66     -2366.62        271.86159      1977.6693      2.3357658      9399.7528      9.9943999      3.5922264      37.129202    
      5040   299.97627     -126979.66     -125957.63     -159.84976      340.8328       1976.6249      2.3343589      9405.4181      9.9494533      3.673347       34.837034    
      5060   296.21198     -126963.11     -125953.9       4187.7688      365.35701      2080.475       2.336453       9396.9884      9.7042583      3.6767876      33.318575    
      5080   297.5804      -126965.02     -125951.14     -1670.4781      340.91388      2033.387       2.3343941      9405.2764      9.4714548      3.6497961      33.217165    
      5100   301.69868     -126974.81     -125946.9      -1245.6343      310.97338      2049.4123      2.3340754      9406.5606      9.3766961      3.5235523      34.197386    
      5120   300.22438     -126966.55     -125943.66      2566.4855      388.46519      2084.0725      2.337474       9392.8838      9.4330044      3.388258       35.613016    
      5140   292.04786     -126935.09     -125940.07     -1032.4486      370.43602      2136.7887      2.3408497      9379.3384      9.5501082      3.2870334      36.732201    
      5160   299.39122     -126952.33     -125932.29     -1952.9499      306.32571      2000.1005      2.3421192      9374.2547      9.6377273      3.1605897      37.262158    
      5180   309.07704     -126979.38     -125926.33      3197.851       325.06653      2133.5599      2.3395174      9384.6796      9.7406044      3.0624585      37.817963    
      5200   325.5858      -127029.24     -125919.95     -3106.4516      323.1637       1979.5488      2.3344403      9405.0904      9.8894362      3.0264075      38.720082    
      5220   319.95648     -127008.88     -125918.77      1984.0747      262.8362       1941.5691      2.3328944      9411.3224      9.9960928      2.9747561      38.519264    
      5240   309.693       -126978.45     -125923.3       812.12857      315.77792      2102.613       2.3370404      9394.6264      9.9855357      2.9405908      36.338544    
      5260   307.81373     -126983.31     -125934.57     -3412.024       700.58641      2299.4804      2.3400083      9382.7111      9.9500524      2.9304763      33.549639    
      5280   300.12616     -126974.12     -125951.57      3065.5143      474.05274      2115.507       2.3443763      9365.2294      9.9635037      2.8728626      31.663744    
      5300   306.85773     -127014.71     -125969.22     -2736.3635      251.21934      1919.0196      2.3431611      9370.0861      10.052987      2.8042072      30.90323     
      5320   304.77414     -127025.52     -125987.14      814.4417       451.54567      2037.3689      2.3391308      9386.231       10.117674      2.7061139      30.6142      
      5340   303.41494     -127036.31     -126002.55     -1470.9279      321.52946      1882.1129      2.3374678      9392.9087      10.118934      2.645841       30.522137    
      5360   298.56997     -127029.29     -126012.04     -2908.6571      221.70495      1920.3028      2.3386722      9388.0712      10.122579      2.7482472      30.815258    
      5380   282.83004     -126980.8      -126017.18      6303.6075      367.08704      2011.7404      2.3408441      9379.3608      10.170068      2.9811819      31.867847    
      5400   284.60742     -126985.73     -126016.06     -2274.678       270.11489      1951.4116      2.3373256      9393.4802      10.180465      3.2172258      33.955111    
      5420   296.37578     -127021.45     -126011.68     -941.88502      219.30631      1821.2108      2.336174       9398.1106      9.9627539      3.2470363      36.243546    
      5440   283.30435     -126971.97     -126006.74      9425.0917      406.03119      2107.19        2.3370403      9394.6268      9.593543       3.1140702      37.563821    
      5460   292.39026     -126995.07     -125998.87     -1762.3142      347.76787      2014.9151      2.3369372      9395.0415      9.3706776      3.0826175      37.578073    
      5480   302.71221     -127021.6      -125990.24     -10339.088      195.88974      1834.3436      2.3363619      9397.3547      9.4008236      3.1945159      36.830753    
      5500   307.70305     -127030.08     -125981.71     -4975.7512      326.51828      1930.5302      2.3329305      9411.1767      9.5888999      3.3842607      36.029337    
      5520   302.62459     -127006.96     -125975.9       10914.893      256.88569      2016.7639      2.3337782      9407.7583      9.6901887      3.4982474      35.156777    
      5540   294.56497     -126972.94     -125969.34     -10762.235      273.03606      1984.2221      2.3307743      9419.883       9.6385818      3.5288495      33.629159    
      5560   296.90445     -126973.57     -125961.99     -4456.1395      212.03107      1911.1278      2.3283067      9429.8667      9.6111484      3.6830383      31.74381     
      5580   293.21785     -126955.17     -125956.16      13586.041      476.36321      2195.0978      2.3318681      9415.4646      9.6574689      3.9322166      30.975548    
      5600   317.42154     -127031.06     -125949.58     -14413.508      470.96985      1922.6924      2.3334749      9408.9813      9.6708347      4.0443517      32.189713    
      5620   318.36815     -127031.71     -125947.01     -752.65259      214.34852      1931.8318      2.3382138      9389.9119      9.5754601      3.9244568      34.364603    
      5640   313.31328     -127015.27     -125947.79      16038.148      241.58919      1959.0747      2.342029       9374.6154      9.442707       3.6554041      36.121408    
      5660   315.72651     -127028.48     -125952.78     -7132.9658      248.88885      1885.4859      2.3365399      9396.6388      9.4486899      3.505718       36.020155    
      5680   303.20669     -126994.35     -125961.31     -11899.626      244.56459      1936.8518      2.331973       9415.0411      9.6524098      3.6297942      33.678219    
      5700   302.79076     -127004.8      -125973.17      16304.476      354.94405      2024.4516      2.3402032      9381.9296      9.9726022      3.9026068      31.42214     
      5720   312.11494     -127048.62     -125985.22     -6778.3994      316.31952      1880.034       2.345231       9361.8163      10.245222      4.1134736      30.846232    
      5740   306.07618     -127039.56     -125996.74     -14083.692      205.8745       1814.2708      2.3461242      9358.252       10.321239      4.168144       32.048525    
      5760   297.35912     -127021.68     -126008.56      2607.484       234.04161      1919.9461      2.3454653      9360.881       10.186354      4.1598866      33.673233    
      5780   293.56398     -127016.47     -126016.28      8536.8477      344.72226      2021.0747      2.3419929      9374.7603      9.9137885      4.1728022      33.88733     
      5800   300.7009      -127043.41     -126018.9      -12776.117      241.86568      1831.7729      2.3391112      9386.3095      9.6647161      4.1982666      32.65337     
      5820   296.14597     -127031.1      -126022.11      6208.1694      264.58274      1915.7368      2.3427435      9371.7565      9.5940075      4.126595       31.08804     
      5840   296.86258     -127034.51     -126023.08      5881.1397      230.64425      1839.0797      2.3432793      9369.6135      9.6759158      3.9732401      30.375349    
      5860   295.10858     -127028.06     -126022.6      -7904.1677      207.29254      1919.3835      2.339223       9385.861       9.8028702      3.9733645      30.967085    
      5880   298.57008     -127038.34     -126021.09      7074.904       291.11308      2025.8197      2.3397678      9383.6753      9.8562594      4.1969965      32.350357    
      5900   305.09108     -127057.99     -126018.53     -5502.3224      316.30213      1903.8882      2.3409017      9379.1301      9.8493415      4.5535523      34.282952    
      5920   304.15055     -127055.13     -126018.87     -1126.0691      226.71708      1895.7164      2.3444048      9365.1153      9.8917716      4.814268       36.697731    
      5940   302.17784     -127049.27     -126019.73      4419.889       297.4287       1894.8918      2.3432505      9369.7289      9.9252662      4.8441358      38.886856    
      5960   292.83016     -127017.6      -126019.91     -339.76         238.66948      1828.6657      2.3405574      9380.5096      9.8139319      4.845399       40.134353    
      5980   287.5885      -126999.3      -126019.46     -4247.2131      286.81345      1939.8348      2.3378136      9391.5194      9.5968301      4.9056234      40.252543    
      6000   291.61032     -127008.05     -126014.51      3374.9729      243.64853      1969.2014      2.3400217      9382.657       9.4661053      4.9514377      39.586459    
      6020   303.08239     -127039.85     -126007.23     -224.74522      264.04257      1855.6969      2.3413033      9377.5213      9.6628071      4.9480981      39.325826    
      6040   302.01946     -127028.68     -125999.68     -3473.9944      267.07049      1854.5394      2.3399579      9382.9129      10.068307      4.832964       39.137467    
      6060   289.46064     -126976.31     -125990.1       1673.3041      231.32236      1958.2915      2.3381008      9390.3657      10.331917      4.766999       38.126316    
      6080   301.06001     -127005.14     -125979.4      -727.62134      265.14269      1895.0334      2.3373688      9393.3066      10.291401      4.923374       37.155327    
      6100   311.01306     -127024.09     -125964.45     -3655.5732      241.7733       1880.4991      2.3383177      9389.4947      10.109373      5.1179343      36.729048    
      6120   319.56464     -127043.95     -125955.17      5126.5581      315.51369      1966.5529      2.3387208      9387.8761      10.043331      5.1128341      37.080406    
      6140   315.45322     -127026.51     -125951.74     -305.60382      257.60057      1883.6631      2.3371965      9393.9988      10.086711      4.9183722      37.735835    
      6160   293.2412      -126951.54     -125952.45     -5808.7285      264.88569      1905.9261      2.3346552      9404.2247      10.035587      4.7146731      37.546408    
      6180   297.09655     -126963.42     -125951.19      11307.875      184.23846      1876.61        2.3363344      9397.4655      9.8321138      4.6730118      36.103634    
      6200   298.00523     -126963.29     -125947.97     -5025.8172      243.17421      1938.4004      2.3339183      9407.1938      9.704849       4.7403411      33.739083    
      6220   308.24175     -126994.81     -125944.61     -5386.8472      263.13181      1946.4114      2.3327328      9411.9743      9.8739464      4.7262153      31.358687    
      6240   319.82291     -127035.17     -125945.51      15205.213      241.35524      1925.6996      2.3387193      9387.8822      10.232573      4.5977578      30.122878    
      6260   316.69337     -127027.96     -125948.97     -15923.403      231.68395      1876.1336      2.3404346      9381.0021      10.475683      4.5914362      31.251299    
      6280   309.02866     -127013.96     -125961.08      2824.4738      220.54658      1848.4272      2.34514        9362.1794      10.387007      4.7146838      34.72184     
      6300   305.36466     -127017.49     -125977.09      14474.19       503.27558      2011.4081      2.3413224      9377.4448      10.072351      4.7766411      38.871548    
      6320   294.95974     -126996.48     -125991.53     -17572.119      251.614        1895.2877      2.3310346      9418.8313      9.8440291      4.6530303      41.970297    
      6340   283.81842     -126972.28     -126005.29      16725.047      309.86315      2102.9101      2.3373607      9393.339       9.8429912      4.358678       42.951082    
      6360   290.93794     -127003.61     -126012.37     -13499.442      260.15044      1945.7352      2.3394271      9385.0419      10.023675      4.2330587      41.78793     
      6380   296.73853     -127025.04     -126014.03      3743.6121      216.46062      1855.2326      2.3413496      9377.336       10.181966      4.3731788      39.254446    
      6400   294.17337     -127013.34     -126011.07      2377.7828      305.67919      2019.3431      2.3371398      9394.2267      10.2237        4.5767923      36.93843     
      6420   291.17232     -127000.44     -126008.4      -9814.0637      620.40151      2196.1849      2.3320716      9414.6431      10.205691      4.6877466      35.471886    
      6440   283.14513     -126971.24     -126006.54      13737.29       599.04889      2232.1423      2.3372185      9393.9106      10.152352      4.6209556      34.184978    
      6460   286.60511     -126979.02     -126002.54     -5562.1412      248.53771      1872.6315      2.3420693      9374.4544      10.105408      4.5595523      32.911845    
      6480   303.27217     -127027.52     -125994.25     -10497.474      242.10736      1858.8706      2.3453327      9361.4103      9.9848559      4.5703629      32.061408    
      6500   312.81266     -127052.65     -125986.88      5519.9667      273.63056      1926.7758      2.3476392      9352.213       9.7446344      4.520077       32.338852    
      6520   315.76201     -127057.57     -125981.75      7269.411       279.6423       1914.7384      2.345844       9359.3698      9.5372889      4.3152075      33.886676    
      6540   310.15928     -127038.04     -125981.3      -4019.037       164.22987      1796.7587      2.3438981      9367.1401      9.5580364      4.0321172      36.175824    
      6560   301.82446     -127012.6      -125984.27     -6649.4655      271.41301      1871.1495      2.3425156      9372.6683      9.8895787      3.9364531      39.054895    
      6580   310.14285     -127045.52     -125988.84      1701.7817      311.60718      1852.8721      2.3409133      9379.0837      10.329026      4.0982204      41.419763    
      6600   298.46783     -127011.9      -125995         5316.1563      340.3473       1896.7232      2.3401485      9382.1487      10.555827      4.2514032      41.765837    
      6620   296.70734     -127011.03     -126000.13     -4933.7552      296.46693      1902.6316      2.3398452      9383.3648      10.511834      4.1961131      39.581091    
      6640   295.24539     -127012.05     -126006.13     -398.13347      232.85685      1887.0425      2.3399618      9382.8975      10.367617      3.9337154      35.864825    
      6660   294.3918      -127014.26     -126011.25      4034.2412      231.85315      1879.9091      2.3388916      9387.1909      10.252233      3.6564518      32.308858    
      6680   296.02762     -127023.8      -126015.21     -2940.1352      265.05859      1869.6246      2.3379887      9390.8161      10.135097      3.5039369      30.962746    
      6700   286.48169     -126993.72     -126017.65     -728.48262      280.50677      1965.8176      2.3406707      9380.0556      9.937841       3.4279844      32.225609    
      6720   298.53449     -127035.74     -126018.61      2761.5665      214.80801      1868.9867      2.3396098      9384.3092      9.7447027      3.3319149      34.614297    
      6740   301.34499     -127043.48     -126016.77      1265.0518      237.67827      1836.6819      2.3357874      9399.666       9.6954066      3.2863115      36.598245    
      6760   303.69757     -127049.75     -126015.03     -1215.2226      208.23788      1812.3212      2.3331473      9410.3025      9.8126797      3.3561309      37.515093    
      6780   301.67057     -127043.73     -126015.92     -2213.3144      230.88542      1826.2957      2.3323971      9413.3292      9.9694539      3.5265244      37.449048    
      6800   289.20632     -127002.12     -126016.78     -1066.9692      226.77312      1894.7751      2.3341266      9406.3544      9.9892805      3.6338051      36.436809    
      6820   294.7623      -127019.14     -126014.87      1179.0439      226.33101      1926.2942      2.3398912      9383.1806      9.8536504      3.5461511      34.878062    
      6840   297.26952     -127023.47     -126010.65      1278.4399      209.27588      1882.5295      2.3433725      9369.2411      9.7258862      3.3807564      33.666472    
      6860   308.6579      -127055.15     -126003.53     -651.75015      235.50037      1866.2888      2.3417354      9375.791       9.6958644      3.2538831      33.235164    
      6880   307.04608     -127041.5      -125995.37     -733.08842      215.58786      1896.8188      2.3400251      9382.6435      9.7071248      3.1478572      33.956653    
      6900   300.81776     -127016.78     -125991.87      1349.3086      195.54517      1840.805       2.3392436      9385.7781      9.7757521      3.0824445      35.764355    
      6920   305.4351      -127028.35     -125987.71      164.76965      192.5823       1876.707       2.3377258      9391.8721      9.9383506      3.085902       37.764289    
      6940   301.5892      -127009.48     -125981.95     -1553.2777      191.99227      1936.5976      2.3357651      9399.7557      10.192946      3.1407186      39.568767    
      6960   301.90457     -127005.07     -125976.46      686.9582       488.16513      2054.166       2.3359522      9399.0028      10.454831      3.2587537      41.140689    
      6980   302.87156     -127004.06     -125972.16      400.8438       278.50867      1954.4857      2.3391236      9386.2598      10.551731      3.3296374      41.513897    
      7000   302.10047     -126996.35     -125967.08     -1249.2558      307.5118       1915.5657      2.3409971      9378.7481      10.452213      3.2514458      39.947802    
      7020   308.2246      -127012.01     -125961.86      1999.4362      231.0997       1905.6526      2.3426023      9372.3215      10.229204      3.1479607      36.950857    
      7040   304.43189     -126996.41     -125959.19     -506.23407      233.62151      1904.96        2.3449889      9362.7826      9.9942712      3.0803453      33.952407    
      7060   302.10933     -126984.53     -125955.22     -2313.4636      312.60989      1963.7775      2.3437787      9367.6173      9.8523917      3.0170478      32.092817    
      7080   306.12926     -126996.43     -125953.42      1799.6341      279.99306      1842.9078      2.3407945      9379.5595      9.7856919      2.9304777      31.528786    
      7100   309.49415     -127005.1      -125950.63      859.93722      278.36432      1986.4339      2.3419553      9374.9105      9.7417595      2.8078728      32.61329     
      7120   319.56456     -127041.92     -125953.15     -2986.6191      257.97222      1850.6877      2.3426676      9372.0601      9.7902345      2.776478       35.392445    
      7140   310.91203     -127020.68     -125961.38      451.67666      176.99167      1768.1254      2.3422377      9373.7802      9.9461947      2.8589695      38.275624    
      7160   295.24947     -126980.45     -125974.52      2257.5935      217.92119      1856.9676      2.3397729      9383.655       10.103032      2.908436       39.095541    
      7180   293.05876     -126985.22     -125986.75     -3722.9285      366.03841      1974.2669      2.3371528      9394.1746      10.105452      2.8742082      37.030305    
      7200   298.90504     -127015.63     -125997.24      3332.0333      266.11371      1971.2143      2.3395438      9384.5737      9.9379937      2.74351        33.432046    
      7220   303.33936     -127041.59     -126008.09     -1155.4332      191.87837      1856.0062      2.3398117      9383.4992      9.7824488      2.5595434      30.469664    
      7240   289.63543     -127005.52     -126018.71     -3042.8288      382.77446      1978.8498      2.3380832      9390.4363      9.7860906      2.4211273      29.209605    
      7260   291.27028     -127017.78     -126025.4       4982.8328      253.93641      1937.8077      2.3370373      9394.639       9.9111637      2.3251348      29.153138    
      7280   301.93037     -127057.21     -126028.51     -4174.6694      248.53103      1868.0001      2.3386493      9388.1634      10.008696      2.2986092      29.815621    
      7300   292.0795      -127025.55     -126030.42     -3807.4323      261.64391      1960.4592      2.3419274      9375.0222      10.031652      2.3172799      31.487636    
      7320   293.29343     -127031.07     -126031.8       2302.2514      264.4838       1862.572       2.3428465      9371.3444      10.049314      2.3786115      33.80419     
      7340   284.1955      -126997.62     -126029.35      5696.1018      268.42583      1950.3559      2.340386       9381.1969      10.075192      2.5625648      35.812198    
      7360   282.45686     -126988.6      -126026.25     -676.58501      262.62474      1973.1029      2.3374044      9393.1634      10.031702      2.7899133      36.710156    
      7380   296.6034      -127027.74     -126017.2      -6129.5393      235.19895      1779.5577      2.3363125      9397.5536      9.8460898      2.8289442      36.717027    
      7400   292.46146     -127003.5      -126007.06     -4683.6754      400.18993      1995.4599      2.335156       9402.2075      9.5929811      2.6977415      36.30335     
      7420   298.44844     -127013.61     -125996.78      418.29554      292.89814      1964.2458      2.3357454      9399.8352      9.4411821      2.5554258      35.83063     
      7440   298.50871     -127007.92     -125990.88      7987.4209      285.01867      1954.1309      2.3367325      9395.8644      9.4155443      2.4851295      34.883131    
      7460   296.21256     -126993.87     -125984.65      5386.5009      285.21939      1893.4055      2.3386733      9388.0671      9.4842748      2.600196       32.856639    
      7480   298.71157     -126997.11     -125979.38      1266.7049      203.28195      1887.2012      2.3345411      9404.6843      9.5650634      2.7154493      30.543858    
      7500   305.32064     -127015.61     -125975.36     -3976.5476      211.60611      1839.7203      2.3281864      9430.3538      9.5841987      2.6875673      28.972517    
      7520   302.6707      -127004.87     -125973.65     -7403.3115      212.80733      1828.9457      2.3267661      9436.1104      9.5817113      2.6547364      28.922531    
      7540   302.20647     -127002.98     -125973.35     -11167.407      212.41134      1910.3758      2.3275084      9433.1008      9.6410818      2.7406738      30.829621    
      7560   306.29914     -127018.02     -125974.44     -13096.328      239.51603      1845.9534      2.3274218      9433.4519      9.7182565      2.8970202      33.852856    
      7580   298.89715     -126995.45     -125977.08      2965.4645      342.85738      2025.7004      2.3301568      9422.3794      9.6975353      2.9919895      36.933399    
      7600   309.41517     -127030.05     -125975.85      14324.711      231.35738      1895.3784      2.339323       9385.4595      9.590643       2.9198742      38.887957    
      7620   304.99338     -127018.83     -125979.7       13863.189      316.36         1921.8223      2.3411043      9378.3183      9.5661845      2.7823591      38.78652     
      7640   299.13868     -127005.43     -125986.25      9912.8033      313.59419      2026.1186      2.3369349      9395.0507      9.6807294      2.8058249      36.259255    
      7660   297.16527     -127004.12     -125991.66     -11402.976      223.41261      1871.3478      2.3358345      9399.4764      9.807274       3.0342936      32.271818    
      7680   288.74246     -126978.8      -125995.03     -13970.814      237.49891      1886.5788      2.3350964      9402.4477      9.8520423      3.3155267      28.311804    
      7700   293.48867     -126997.19     -125997.25      7036.2844      237.05655      1927.4044      2.339592       9384.3805      9.8437612      3.4182133      25.570061    
      7720   304.38262     -127033.26     -125996.21      12796.733      332.77221      1957.9764      2.3441737      9366.0387      9.8892625      3.3687474      24.532517    
      7740   313.83217     -127066.67     -125997.42     -16354.454      232.72997      1899.3438      2.3401687      9382.0679      10.034481      3.4205131      25.470991    
      7760   314.28139     -127073.51     -126002.73      16812.53       292.54408      1935.2605      2.346806       9355.5332      10.127812      3.5612206      28.433573    
      7780   305.42788     -127054.41     -126013.8      -10104.881      187.22972      1860.8702      2.3446414      9364.1706      10.156667      3.6290083      32.35117     
      7800   293.10648     -127028.86     -126030.22     -525.84351      261.09378      1953.8145      2.3436117      9368.2846      10.157775      3.5645023      36.027827    
      7820   286.9232      -127021.86     -126044.29      5082.0677      272.84821      1927.464       2.3429883      9370.7772      10.221467      3.481267       38.438544    
      7840   290.88802     -127045.17     -126054.1      -9700.4103      219.41706      1859.5586      2.3428131      9371.478       10.33768       3.558233       39.320571    
      7860   289.36824     -127046.49     -126060.59      14332.947      265.79606      1987.66        2.34702        9354.6803      10.424981      3.8197571      38.942323    
      7880   297.73642     -127078.98     -126064.57     -13488.574      189.854        1889.4613      2.3440284      9366.6193      10.440813      4.0541355      37.163732    
      7900   295.70758     -127075.66     -126068.17      3005.754       230.49429      1905.9581      2.346243       9357.778       10.320857      4.017302       33.668458    
      7920   294.55186     -127072.57     -126069.01      10300.31       287.4626       1908.8889      2.3475232      9352.6748      10.171385      3.8400377      29.258762    
      7940   293.89536     -127069.47     -126068.14     -11703.738      211.06412      1820.7465      2.3434039      9369.1153      10.095519      3.7932378      25.700199    
      7960   284.92627     -127036.97     -126066.21      2218.5386      314.21016      2001.0373      2.3415061      9376.709       10.038831      3.8794419      23.999972    
      7980   294.70636     -127063.68     -126059.59      7801.1049      265.90709      1886.4388      2.340134       9382.2069      9.9800696      4.0198914      24.424987    
      8000   289.96144     -127040.59     -126052.67     -12055.106      199.83765      1880.6335      2.3348267      9403.5337      9.8929384      4.027929       26.448729    
      8020   290.53662     -127035.91     -126046.03      8350.5768      309.19933      2004.844       2.3349447      9403.0585      9.7996136      3.9619868      29.384341    
      8040   295.97479     -127048.19     -126039.78     -948.35844      201.75852      1930.3362      2.3365911      9396.4329      9.8026298      4.0599623      32.785869    
      8060   295.43406     -127039.08     -126032.51     -10816.018      206.12747      1904.9062      2.339797       9383.5583      9.8711135      4.3429441      35.32874     
      8080   297.18637     -127038.55     -126026.01      4479.2635      260.31517      1888.2203      2.3395453      9384.5677      9.900778       4.6365624      36.427585    
      8100   301.49126     -127049.24     -126022.04      11199.634      240.08769      1958.8636      2.3335083      9408.8465      9.8198401      4.7458156      35.934446    
      8120   302.7443      -127049.76     -126018.29     -9420.5735      236.02621      1888.305       2.3298611      9423.5752      9.6275255      4.6781493      33.786716    
      8140   303.90041     -127052.44     -126017.04     -8953.9913      320.48009      1994.4901      2.329455       9425.2182      9.5065784      4.6592123      30.757452    
      8160   306.10758     -127060.65     -126017.72      12882.014      380.08698      2060.0489      2.3313123      9417.7094      9.5743533      4.7669335      27.999265    
      8180   301.50858     -127046.12     -126018.86     -4149.1409      416.23246      2011.7515      2.3282747      9429.9962      9.681904       4.8400398      26.47207     
      8200   299.9482      -127040.81     -126018.87     -13080.816      204.74092      1827.7251      2.3273879      9433.5892      9.6288642      4.7957863      26.342014    
      8220   294.85029     -127026.2      -126021.63     -1663.6343      382.05596      2133.9403      2.3285941      9428.7029      9.4334487      4.638157       27.501057    
      8240   308.0227      -127073.51     -126024.06      15026.467      331.28451      1887.4949      2.3338073      9407.6411      9.2999508      4.5498796      29.689724    
      8260   300.39305     -127051.67     -126028.21     -3929.065       365.12346      1848.5481      2.3313539      9417.5414      9.3851471      4.6655727      32.470764    
      8280   285.57084     -127003.32     -126030.36     -9435.5924      305.46142      1936.8277      2.3308196      9419.7         9.52835        4.7817616      34.412106    
      8300   284.04027     -126997.07     -126029.33      17111.49       247.36334      1973.1618      2.3348211      9403.5564      9.5876478      4.7797024      34.108112    
      8320   285.55432     -126997.75     -126024.85      9743.8462      237.44659      1957.0691      2.3352594      9401.7913      9.547702       4.662576       31.984564    
      8340   292.9961      -127011.99     -126013.73     -18285.473      196.33159      1823.7291      2.3315412      9416.7849      9.5673657      4.5429293      29.486041    
      8360   291.83849     -126993.4      -125999.09     -13589.782      206.36076      1836.6779      2.3336102      9408.4356      9.7243787      4.6070841      27.719336    
      8380   304.47782     -127020.07     -125982.69      15830.156      288.95082      1993.1848      2.3398062      9383.5215      9.8808488      4.7558015      26.717137    
      8400   309.8421      -127025.17     -125969.52      14464.705      251.23736      1959.4662      2.3421708      9374.0482      9.8566374      4.8358279      26.027197    
      8420   308.16069     -127011.11     -125961.19     -8347.3212      195.06714      1811.951       2.3409116      9379.0904      9.6996176      4.9130664      26.122953    
      8440   311.04285     -127016.93     -125957.19     -15733.865      191.49021      1834.648       2.3404454      9380.9585      9.5880146      5.009856       27.037333    
      8460   303.53027     -126990.65     -125956.5      -14140.28       233.87865      1805.148       2.3405163      9380.6745      9.6011371      5.1807977      28.162316    
      8480   305.79808     -127000.78     -125958.9       4077.8497      244.55016      1876.1054      2.3468795      9355.2401      9.6656312      5.3907207      28.36361     
      8500   299.41019     -126979.9      -125959.79      10702.935      252.00938      1890.7116      2.3518458      9335.4852      9.7052295      5.4922126      27.737969    
      8520   292.77503     -126957.92     -125960.42      10131.194      217.71803      1948.2423      2.3503944      9341.25        9.6745409      5.4140857      27.776591    
[...]
     37940   307.52784     -127035.42     -125987.65     -1509.4373      222.4784       1837.7459      2.3325293      9412.7956      9.9264298      4.3405141      36.310751    
     37960   305.80983     -127020.8      -125978.88      1273.5034      192.52074      1801.2613      2.3349072      9403.2096      9.7997091      4.5557493      38.654749    
     37980   303.10974     -127004.13     -125971.41      132.51938      259.76535      1860.8355      2.338173       9390.0757      9.7912601      4.7031589      39.896193    
     38000   300.26645     -126990.26     -125967.23     -1784.5627      178.62976      1770.0736      2.3400415      9382.5778      9.8209695      4.6125245      39.638137    
     38020   303.63782     -126996.64     -125962.13      2621.5833      237.60164      1832.6256      2.3391642      9386.0967      9.7432754      4.4481973      38.176249    
     38040   311.73272     -127019.63     -125957.54     -2614.8784      287.07945      1849.741       2.3374775      9392.8699      9.556306       4.4915871      36.620056    
     38060   312.30628     -127021.46     -125957.41      915.8884       194.45507      1814.2172      2.3340806      9406.5397      9.4492051      4.7271225      35.767212    
     38080   306.76526     -127003.38     -125958.21     -191.66126      272.24326      1973.0997      2.3308491      9419.5808      9.5312312      4.8355065      35.151092    
     38100   303.20618     -126995.84     -125962.8      -1774.4684      272.82696      1899.1791      2.332076       9414.6252      9.7224681      4.6811742      34.373134    
     38120   306.94199     -127014.76     -125968.99      4138.1638      167.51561      1786.4141      2.335344       9401.4509      9.8241051      4.4641884      34.010264    
     38140   311.06602     -127038.15     -125978.32     -4445.0656      198.31793      1825.487       2.3359301      9399.092       9.7325166      4.4603326      34.602229    
     38160   307.60142     -127043.17     -125995.15      2560.8371      303.48723      1905.9197      2.3359311      9399.088       9.574154       4.6539915      35.637474    
     38180   303.37885     -127047.9      -126014.27      430.80241      172.80463      1747.8794      2.3355859      9400.4768      9.5374586      4.8302437      35.929788    
     38200   296.67891     -127042.23     -126031.42     -6050.8157      239.15073      1798.1248      2.334783       9403.7095      9.6361193      4.8194065      34.804545    
     38220   285.28352     -127013.54     -126041.56      6372.0624      231.96852      1903.1127      2.3365088      9396.7639      9.7463027      4.7228992      32.861869    
     38240   286.90537     -127021.81     -126044.3      -2601.065       198.28617      1813.8287      2.3373556      9393.3597      9.7875923      4.7938599      31.828728    
     38260   291.65107     -127037.79     -126044.12     -7928.4879      226.50432      1786.7933      2.3366019      9396.3897      9.7778656      4.9634283      32.620801    
     38280   297.48453     -127055.33     -126041.78      5867.3221      215.21649      1795.3362      2.3368712      9395.3067      9.8125105      5.0275145      34.480543    
     38300   298.26526     -127052.65     -126036.44      4445.2609      204.72376      1839.5365      2.3376812      9392.0513      9.907085       4.9211989      36.17018     
     38320   294.50546     -127038.39     -126034.99     -11022.558      194.87211      1794.32        2.3387099      9387.9198      9.9209238      4.7726971      36.927499    
     38340   296.26749     -127041.03     -126031.63     -1281.9164      250.10795      1793.2212      2.3406552      9380.1177      9.8027832      4.8178725      36.818897    
     38360   298.59434     -127043.69     -126026.36      13178.648      233.43941      1818.2481      2.3405027      9380.7291      9.657516       5.0713564      35.967336    
     38380   299.78505     -127039.94     -126018.55     -12487.372      146.51988      1708.5954      2.3383486      9389.3704      9.6414121      5.3196431      34.352887    
     38400   297.05802     -127026.3      -126014.21     -8331.9141      311.92154      1882.5325      2.3409307      9379.0138      9.8381094      5.3503739      32.353204    
     38420   295.00545     -127010.2      -126005.1       17480.768      265.04288      1851.035       2.3457905      9359.5832      10.102346      5.1787235      30.919413    
     38440   297.01098     -127008.58     -125996.64     -14945.228      282.06038      1763.7088      2.3400188      9382.6687      10.267629      5.1400053      31.249829    
     38460   297.63083     -127001.06     -125987.01     -7065.0028      393.77318      1869.9229      2.3403364      9381.3957      10.252571      5.3061105      33.301678    
     38480   297.14118     -126991.53     -125979.15      12939.074      253.66887      1865.4016      2.3427089      9371.8949      10.145749      5.4171727      35.784584    
     38500   308.04094     -127020.95     -125971.43      6344.5471      197.93959      1847.3137      2.3405296      9380.621       10.090894      5.3296774      37.417806    
     38520   306.61561     -127007.67     -125963.01     -15384.217      251.66698      1828.2713      2.3352484      9401.8357      10.046184      5.1681045      37.909754    
     38540   304.89625     -126998.69     -125959.88     -2063.3578      272.82342      1825.7668      2.3347405      9403.8809      9.9111246      5.1735198      37.582013    
     38560   302.92425     -126989.12     -125957.04      10060.775      253.13934      1861.409       2.3366274      9396.2869      9.7406547      5.3868625      36.504814    
     38580   291.78521     -126949.11     -125954.98     -13546.651      225.17731      1860.7077      2.3350244      9402.7377      9.6724589      5.5389773      34.558442    
     38600   296.74671     -126963.72     -125952.69     -2816.5429      297.43506      1920.2262      2.3359352      9399.0712      9.8014014      5.42826        31.829501    
     38620   300.54054     -126972.29     -125948.33      10203.223      199.43178      1887.9488      2.3400187      9382.6692      9.9968894      5.1548916      28.877485    
     38640   301.55301     -126970.22     -125942.81     -11973.694      214.96992      1806.6347      2.3382419      9389.7989      10.06406       4.9977512      26.773683    
     38660   308.90213     -126993.24     -125940.79      2760.9506      245.25421      1819.4879      2.3379536      9390.957       9.9268206      5.0618473      26.517384    
     38680   303.29531     -126971.99     -125938.64      5676.2245      280.425        1894.4613      2.3360861      9398.4643      9.7011436      5.0960841      28.231605    
     38700   305.47004     -126978.45     -125937.69     -6131.4305      170.05143      1853.7968      2.3348499      9403.4401      9.6340424      4.998237       30.996231    
     38720   306.36954     -126981.58     -125937.75     -99.852837      214.52302      1858.8338      2.3371415      9394.2201      9.7681287      4.8337271      33.460542    
     38740   304.59138     -126979.6      -125941.84      3430.1363      332.72132      1930.5681      2.3375844      9392.44        9.9351718      4.7483851      34.848826    
     38760   300.87254     -126973.62     -125948.52     -2714.7034      245.11899      1900.3479      2.336256       9397.7806      10.003827      4.8687747      34.965037    
     38780   292.85778     -126959.75     -125961.97      5.9789386      244.63063      1872.1584      2.3341316      9406.334       9.9724447      4.958508       34.143954    
     38800   305.32424     -127018.87     -125978.61      2278.4072      275.5502       1776.2166      2.3352493      9401.8321      9.9545782      4.8613786      33.075086    
     38820   306.92703     -127047.22     -126001.5      -929.7267       209.2991       1779.0399      2.3349246      9403.1393      9.9901228      4.6958039      32.342581    
     38840   295.277       -127025.25     -126019.22     -2226.4961      166.81838      1812.359       2.3316315      9416.4201      9.9638173      4.6875823      32.160196    
     38860   295.13042     -127036.81     -126031.28      2114.2876      232.911        1780.8668      2.332092       9414.5607      9.7666529      4.9134831      32.534275    
     38880   292.74314     -127036.31     -126038.92      482.55873      177.96508      1741.0332      2.3328456      9411.5194      9.4556621      5.1148869      33.187096    
     38900   293.81606     -127043.78     -126042.73     -2078.5121      174.30175      1776.4353      2.331229       9418.0458      9.2938927      5.0894227      33.518059    
     38920   295.44069     -127051.5      -126044.92     -271.05814      247.8432       1822.574       2.3293833      9425.5081      9.3711594      4.8670899      32.868457    
     38940   287.45416     -127024.93     -126045.55      2702.3228      177.33039      1796.6061      2.3311509      9418.3614      9.543686       4.7381993      31.451706    
     38960   288.31238     -127026.18     -126043.89      1471.6685      197.05991      1755.2603      2.3357785      9399.7019      9.667761       4.8514402      30.052337    
     38980   289.50866     -127024.77     -126038.4      -2779.2178      189.93841      1873.5644      2.3386276      9388.2504      9.6734346      4.9171204      29.214611    
     39000   300.73097     -127055.3      -126030.69     -2390.4407      191.55212      1775.8015      2.3370941      9394.4108      9.6790711      4.7260746      28.886274    
     39020   310.59277     -127079.19     -126020.98      4141.7211      179.10084      1815.1938      2.3375303      9392.6577      9.7335617      4.4062501      28.755188    
     39040   304.70249     -127052.81     -126014.66      918.95701      262.94859      1883.8028      2.3394417      9384.9833      9.8076387      4.245612       28.737019    
     39060   298.82011     -127027        -126008.9      -3975.2697      199.06856      1925.6268      2.343743       9367.7598      9.9000532      4.3475018      29.277519    
     39080   297.87564     -127020.6      -126005.72      7956.9745      160.81305      1811.4569      2.3495844      9344.4703      9.9841874      4.4463502      30.894333    
     39100   293.80775     -126999.59     -125998.56     -1379.2029      288.6331       1881.1686      2.3440654      9366.4714      10.100057      4.2307663      33.08646     
     39120   292.78196     -126988.18     -125990.65     -4607.3342      231.49833      1967.0162      2.3372738      9393.6884      10.203901      3.7714117      34.489732    
     39140   292.82797     -126979.78     -125982.09      9154.3183      340.96222      1990.3586      2.3395488      9384.5539      10.233874      3.4620208      34.041915    
     39160   302.47641     -127001.39     -125970.84     -9730.4776      198.95403      1853.2609      2.3385502      9388.5613      10.203142      3.4068455      31.807618    
     39180   311.86017     -127023.43     -125960.9       5707.4828      214.4582       1852.8774      2.3415389      9376.5777      10.05204       3.3735892      28.81919     
     39200   313.53475     -127021.86     -125953.63      7866.2674      315.2663       1878.9468      2.3444775      9364.825       9.7898831      3.1732993      26.383099    
     39220   312.52957     -127014.6      -125949.79     -12797.981      209.52182      1794.5029      2.3410851      9378.3953      9.4737486      2.8633899      25.276312    
     39240   298.54934     -126967.8      -125950.62      6653.4936      291.0698       1981.7288      2.343031       9370.6066      9.1993871      2.7366179      25.584239    
     39260   297.50808     -126965.16     -125951.53      13158.943      274.22918      1878.662       2.3413531      9377.3219      9.12281        2.906398       27.119932    
     39280   302.98983     -126985.48     -125953.17     -6453.0322      258.01605      1850.2165      2.3335269      9408.7718      9.1729413      3.0398496      29.623032    
     39300   310.07999     -127010.44     -125953.97     -11928.584      194.36444      1811.1042      2.3315616      9416.7025      9.2754954      2.9422391      32.398664    
     39320   320.58527     -127051.53     -125959.28      4285.8403      227.79759      1852.7115      2.3352917      9401.6615      9.4212809      2.6801887      34.174986    
     39340   318.87367     -127053.97     -125967.55      16691.54       291.4424       1887.9032      2.3389032      9387.1442      9.5779192      2.6154654      34.183333    
     39360   308.05431     -127029.96     -125980.4       3565.848       219.43815      1855.9374      2.3383976      9389.1737      9.7036367      2.9068705      32.793989    
     39380   300.37964     -127011.89     -125988.47     -17502.918      227.49826      1802.7359      2.3369454      9395.0084      9.6789485      3.2158654      31.093138    
     39400   296.7706      -127010.08     -125998.96      890.89154      315.85555      1876.1461      2.3401141      9382.2869      9.5720783      3.2612633      30.117401    
     39420   304.40228     -127038.97     -126001.85      16670.059      312.95222      1966.6257      2.3415689      9376.4577      9.6016268      3.1434698      30.161731    
     39440   301.25575     -127032.51     -126006.11     -17953.137      190.83711      1750.7741      2.3362463      9397.8196      9.7955904      3.1459636      30.747022    
     39460   294.36098     -127012.81     -126009.91      6301.4677      173.58623      1823.0726      2.3374393      9393.023       10.002998      3.3406772      31.544208    
     39480   294.11018     -127013.29     -126011.24      7523.5913      243.29034      1844.8062      2.3362502      9397.8039      10.075591      3.4232053      32.492409    
     39500   303.59788     -127043.57     -126009.2      -12894.495      176.84925      1767.5551      2.334332       9405.5265      9.9778927      3.1516637      33.167526    
     39520   313.64882     -127077.44     -126008.82      12442.377      202.32486      1890.0275      2.3402768      9381.6345      9.8295241      2.7341446      32.788858    
     39540   309.47118     -127067.67     -126013.28     -10200.016      168.6662       1758.4803      2.3415538      9376.518       9.7091776      2.5351853      31.107286    
     39560   291.30745     -127010.9      -126018.39      7393.9573      387.00004      1978.4499      2.3447717      9363.6499      9.5830183      2.6548514      28.681691    
     39580   286.39122     -126999.94     -126024.18     -4387.2575      171.43101      1820.3336      2.3432432      9369.758       9.4146068      2.8175875      26.591007    
     39600   290.55118     -127014.49     -126024.57      2554.9542      259.89572      1932.5164      2.3411373      9378.1862      9.2400853      2.6726283      25.707224    
     39620   303.30585     -127056.5      -126023.12     -475.89197      272.77177      1831.3703      2.3386589      9388.1249      9.2021489      2.2961716      26.265571    
     39640   303.11759     -127053.99     -126021.25     -4612.7309      309.90199      1809.4167      2.3355514      9400.6157      9.3702607      2.0948236      27.811838    
     39660   298.30266     -127035.81     -126019.47      5814.0896      204.03819      1809.7553      2.3339272      9407.1577      9.5955318      2.1678934      29.702479    
     39680   300.72087     -127043.09     -126018.51     -1688.5724      221.21779      1777.0348      2.3313741      9417.4595      9.6406156      2.1902185      31.641338    
     39700   298.75195     -127034.26     -126016.39     -2711.5084      189.35171      1793.1159      2.3326417      9412.3421      9.4923875      1.9856253      33.244823    
     39720   296.24893     -127023.13     -126013.79      5333.5259      216.82516      1846.1072      2.3372385      9393.8302      9.3640934      1.7285459      34.03        
     39740   290.55781     -126999.28     -126009.33     -4617.957       180.4444       1823.4707      2.3362986      9397.6092      9.4181497      1.7745678      33.969883    
     39760   292.52001     -126998.49     -126001.85      1580.6081      242.13668      1846.7446      2.3365903      9396.4363      9.5528227      2.1990343      33.231804    
     39780   305.90761     -127030.54     -125988.29      3965.8979      403.90001      1922.2702      2.3385738      9388.4665      9.5984428      2.5305453      31.97572     
     39800   312.23415     -127039.69     -125975.89     -5557.0201      265.75948      1846.5963      2.3370902      9394.4262      9.6066368      2.4192201      30.987691    
     39820   310.42973     -127024.69     -125967.03     -2729.4145      212.84793      1866.3356      2.3347529      9403.8308      9.6961454      2.0538392      31.035084    
     39840   299.51233     -126981.15     -125960.7       9229.7049      345.94651      1946.6389      2.3353313      9401.5018      9.8434737      1.816403       31.849876    
     39860   302.56463     -126983.54     -125952.68     -7025.5349      210.91386      1844.1385      2.3352915      9401.6621      9.9437418      1.9587398      32.904844    
     39880   308.60146     -126998.01     -125946.59     -8353.4923      224.25257      1890.0598      2.3373832      9393.2486      9.8679642      2.2192403      33.955348    
     39900   307.23978     -126989.38     -125942.59      16582.371      291.10681      2012.7686      2.3430416      9370.5643      9.6923312      2.2842961      34.803159    
     39920   307.76888     -126990.18     -125941.59     -6638.9602      160.88432      1799.9919      2.3415748      9376.434       9.604898       2.2700386      35.33712     
     39940   300.60077     -126963.98     -125939.82     -16182.496      188.26672      1871.4517      2.3362326      9397.8747      9.6700882      2.4760163      35.439235    
     39960   302.09542     -126969.47     -125940.21      20767.121      299.54817      1974.9784      2.3382839      9389.6305      9.7935088      2.9469376      34.981923    
     39980   310.23347     -126998.66     -125941.68     -2804.5677      336.16052      1877.6379      2.3345974      9404.4572      9.8488664      3.3585333      34.02211     
     40000   310.90246     -127005.31     -125946.04     -17553.286      188.9455       1765.4955      2.3347153      9403.9824      9.8354369      3.4190259      32.885263    
Loop time of 1426.8 on 32 procs for 40000 steps with 1144 atoms

Performance: 0.242 ns/day, 99.084 hours/ns, 28.035 timesteps/s, 32.072 katom-step/s
99.0% CPU use with 32 MPI tasks x 1 OpenMP threads

MPI task timing breakdown:
Section |  min time  |  avg time  |  max time  |%varavg| %total
---------------------------------------------------------------
Pair    | 1105.5     | 1165.1     | 1191.2     |  46.7 | 81.66
Neigh   | 80.993     | 83.942     | 86.996     |  15.9 |  5.88
Comm    | 13.115     | 31.713     | 85.031     | 243.3 |  2.22
Output  | 1.1037     | 1.3043     | 1.453      |   8.5 |  0.09
Modify  | 134.09     | 143.62     | 152.89     |  44.3 | 10.07
Other   |            | 1.076      |            |       |  0.08

Nlocal:          35.75 ave          39 max          32 min
Histogram: 1 2 0 0 2 25 0 1 0 1
Nghost:        3420.03 ave        3562 max        3310 min
Histogram: 1 0 10 3 9 5 0 2 1 1
Neighs:        30725.6 ave       33394 max       26964 min
Histogram: 1 1 1 0 2 3 22 1 0 1

Total # of neighbors = 983219
Ave neighs/atom = 859.45717
Neighbor list builds = 4000
Dangerous builds not checked
unfix           npt


write_data npt.lammps
System init for write_data ...

# isotropic volume relaxation to hydrostatic target

#fix             3 all box/relax  vmax 1.0e-3
#variable        emin equal pe+f_3/atoms
#thermo_style    custom step temp pe pxx pyy pzz f_3 v_emin  cella cellb cellc cellalpha cellbeta cellgamma
#minimize    1.0e-6 0.001 1000 10000

write_data final.lammps
System init for write_data ...
Total wall time: 0:23:47
