LAMMPS (2 Aug 2023 - Development - patch_2Aug2023-289-gafabb279a3)
  using 1 OpenMP thread(s) per MPI task
# REAX potential for
# .....

boundary        p p p
units           real

atom_style      charge
#read_data       ./lmp.data
read_data       ./final.lammps
Reading data file ...
  orthogonal box = (0.0044948849 0.0082361883 0.26395311) to (4.4422701 8.1397798 260.86341)
  1 by 1 by 32 MPI processor grid
  reading atoms ...
  1144 atoms
  reading velocities ...
  1144 velocities
  read_data CPU = 0.084 seconds
replicate       1 1 1
Replication is creating a 1x1x1 = 1 times larger system...
  orthogonal box = (0.0044948849 0.0082361883 0.26395311) to (4.4422701 8.1397798 260.86341)
  1 by 1 by 32 MPI processor grid
  1144 atoms
  replicate CPU = 0.002 seconds

#change_box all triclinic
pair_style      reax/c NULL
pair_coeff      * * ../../../ForceFiledFiles/ffield.reax.FC C F H
Reading potential file ../../../ForceFiledFiles/ffield.reax.FC with DATE: 2013-06-28
WARNING: Changed valency_val to valency_boc for X (src/REAXFF/reaxff_ffield.cpp:296)
neighbor        2. bin
neigh_modify    every 10 delay 0 check no
fix             q all qeq/reax 1 0.0 10.0 1e-6 reax/c

variable        dt_MD equal 0.1
variable        dt_MIN equal 10*v_dt_MD
timestep        ${dt_MD}
timestep        0.1
thermo_style    custom step temp epair etotal press fmax fnorm density
thermo          20
write_data      init.lmpdata
System init for write_data ...
Neighbor list info ...
  update: every = 10 steps, delay = 0 steps, check = no
  max neighbors/atom: 2000, page size: 100000
  master list distance cutoff = 12
  ghost atom cutoff = 12
  binsize = 6, bins = 1 2 44
  2 neighbor lists, perpetual/occasional/extra = 2 0 0
  (1) pair reax/c, perpetual
      attributes: half, newton off, ghost
      pair build: half/bin/newtoff/ghost
      stencil: full/ghost/bin/3d
      bin: standard
  (2) fix qeq/reax, perpetual, copy from (1)
      attributes: half, newton off
      pair build: copy
      stencil: none
      bin: none
variable        Tdamp equal 100*dt
variable        Pdamp equal 100*dt
compute         Mu all property/atom xu yu zu
variable        qx atom q*c_Mu[1]
variable        qy atom q*c_Mu[2]
variable        qz atom q*c_Mu[3]
compute         Mx all reduce sum v_qx
compute         My all reduce sum v_qy
compute         Mz all reduce sum v_qz
thermo_style    custom step temp epair etotal press fmax fnorm density vol c_Mx c_My c_Mz
dump            dcd all dcd 200 dump.dcd
dump_modify     dcd unwrap yes
dump            qxyz all custom 20 dump.qxyz.txt id q xu yu zu
dump_modify     qxyz sort id
dump            xyz_form all xyz 100 dump.xyz
dump_modify     xyz_form sort id

variable        T0 equal 300
variable        T1 equal 300
timestep        ${dt_MD}
timestep        0.1
#fix             npt all npt temp ${T0} ${T1} ${Tdamp}  aniso 0 0 ${Pdamp}
fix             npt all npt temp ${T0} ${T1} ${Tdamp}  iso 0 0 ${Pdamp}
fix             npt all npt temp 300 ${T1} ${Tdamp}  iso 0 0 ${Pdamp}
fix             npt all npt temp 300 300 ${Tdamp}  iso 0 0 ${Pdamp}
fix             npt all npt temp 300 300 10  iso 0 0 ${Pdamp}
fix             npt all npt temp 300 300 10  iso 0 0 10
fix             mom all momentum 1 linear 1 1 1
run             40000

CITE-CITE-CITE-CITE-CITE-CITE-CITE-CITE-CITE-CITE-CITE-CITE-CITE

Your simulation uses code contributions which should be cited:

- pair reaxff command: doi:10.1016/j.parco.2011.08.005

@Article{Aktulga12,
 author = {H. M. Aktulga and J. C. Fogarty and S. A. Pandit and A. Y. Grama},
 title = {Parallel Reactive Molecular Dynamics: {N}umerical Methods and Algorithmic Techniques},
 journal = {Parallel Computing},
 year =    2012,
 volume =  38,
 number =  {4--5},
 pages =   {245--259}
}

- fix qeq/reaxff command: doi:10.1016/j.parco.2011.08.005

@Article{Aktulga12,
 author = {H. M. Aktulga and J. C. Fogarty and S. A. Pandit and A. Y. Grama},
 title = {Parallel Reactive Molecular Dynamics: {N}umerical Methods and Algorithmic Techniques},
 journal = {Parallel Computing},
 year =    2012,
 volume =  38,
 pages =   {245--259}
}

CITE-CITE-CITE-CITE-CITE-CITE-CITE-CITE-CITE-CITE-CITE-CITE-CITE

Per MPI rank memory allocation (min/avg/max) = 58.52 | 60.01 | 61.96 Mbytes
   Step          Temp          E_pair         TotEng         Press           Fmax          Fnorm         Density         Volume          c_Mx           c_My           c_Mz     
         0   310.90246     -127005.31     -125946.04     -17553.398      188.9455       1765.4956      2.3347153      9403.9824      9.835739       3.4190701      32.891322    
        20   307.68261     -126995.75     -125947.46     -8185.6036      196.84039      1849.09        2.3348425      9403.4702      9.8279874      3.1727846      32.368696    
        40   306.75447     -126996.28     -125951.15      17532.239      302.09245      1942.8411      2.334779       9403.7259      9.7716486      3.0648675      32.633837    
        60   306.292       -127000.17     -125956.61      4300.6687      246.22216      1855.8676      2.3315159      9416.8869      9.5659524      3.2631869      33.100738    
        80   305.78484     -127005.33     -125963.5      -14993.811      186.02648      1761.724       2.3321505      9414.3245      9.2368418      3.4722965      33.184121    
       100   290.95268     -126967.5      -125976.2      -5556.5655      198.77151      1819.607       2.337683       9392.044       9.0456207      3.4700203      32.899964    
       120   288.30012     -126967.12     -125984.87      12510.935      290.57104      1908.5895      2.3418278      9375.421       9.1419308      3.3313342      32.619262    
       140   295.94036     -126999.19     -125990.91     -5598.6738      235.81898      1838.3921      2.3371132      9394.3338      9.3689916      3.3028871      32.459991    
       160   301.02034     -127020.61     -125995.01     -5090.5634      224.52298      1778.7545      2.3370243      9394.6912      9.504194       3.465896       32.158766    
       180   304.00665     -127038.5      -126002.73      7893.0598      236.82644      1790.4639      2.3388129      9387.5065      9.51795        3.5300518      31.541069    
       200   290.27571     -126999.37     -126010.38     -401.54953      190.46176      1833.5021      2.3364896      9396.8412      9.5742743      3.3104287      30.804864    
       220   286.35429     -126992.68     -126017.05     -5328.1734      225.38097      1809.1281      2.3366952      9396.0143      9.7101177      2.9870907      30.703763    
       240   290.60901     -127012.23     -126022.1       4983.3359      307.14134      1864.2396      2.3398888      9383.1902      9.7880327      2.8855053      31.810746    
       260   293.38568     -127025.86     -126026.27      1237.1537      168.75558      1806.6955      2.3422615      9373.685       9.7557175      3.1210851      33.773206    
       280   299.26283     -127048.23     -126028.62     -2944.9458      194.93825      1807.4439      2.3406725      9380.0486      9.7090072      3.4488169      35.805919    
       300   296.6826      -127044.63     -126033.82     -3154.8201      237.55795      1867.6339      2.3367296      9395.876       9.7740911      3.5845032      37.415108    
       320   294.93516     -127046.65     -126041.79      3038.2581      237.86244      1854.8398      2.3372094      9393.9471      9.9490979      3.5595353      38.454903    
       340   290.60858     -127041.26     -126051.13      3251.9238      214.45264      1867.8738      2.3375702      9392.4971      10.102147      3.5967507      38.630616    
       360   282.87379     -127022.36     -126058.59     -1657.6692      395.42703      1892.9655      2.3371109      9394.3431      10.1297        3.8533041      37.449842    
       380   285.31171     -127035.08     -126063.01     -3352.7642      206.07195      1806.9421      2.3361548      9398.1876      9.973119       4.1284415      35.128145    
       400   288.47983     -127047.34     -126064.47     -3874.0036      255.15012      1825.0764      2.3371748      9394.0864      9.7120112      4.1767984      32.489451    
       420   293.92419     -127062.98     -126061.56     -3598.6219      194.19183      1741.6114      2.3378294      9391.4558      9.5237068      4.1038671      30.610663    
       440   295.94977     -127065.04     -126056.71     -3640.6014      183.44076      1745.8139      2.3364888      9396.8443      9.4460588      4.2210329      30.313553    
       460   293.3773      -127049.26     -126049.71     -4131.3831      184.42338      1815.9409      2.3340999      9406.4618      9.4442715      4.6621002      31.693041    
       480   294.17147     -127044.06     -126041.8      -2633.576       310.19291      1884.578       2.3326518      9412.3014      9.4581869      5.0599241      34.144647    
       500   297.74725     -127045.3      -126030.86      286.63179      188.48065      1726.9917      2.334456       9405.027       9.5362706      5.1109974      36.541623    
       520   300.05571     -127040.54     -126018.23      2605.367       242.24233      1818.4838      2.3328885      9411.3462      9.7525994      4.8835043      38.047716    
       540   299.46112     -127028.06     -126007.77      5071.0236      224.42823      1809.2538      2.3329584      9411.0641      9.9705855      4.7038467      38.11588     
       560   300.77295     -127021.98     -125997.22      6579.9481      287.81801      1861.7606      2.3332506      9409.8858      10.011293      4.8116679      36.596898    
       580   307.24432     -127035.42     -125988.61     -594.16285      238.15228      1830.9909      2.3358116      9399.5687      9.8533268      5.0250931      34.081862    
       600   301.81113     -127009.57     -125981.28     -7137.5656      206.98636      1856.4106      2.3380647      9390.5108      9.7247434      5.0495806      31.501576    
       620   295.78221     -126986.43     -125978.68     -7843.7074      228.75365      1823.8809      2.3382808      9389.6428      9.7910938      4.9121737      30.166518    
       640   295.80748     -126983.27     -125975.43      2054.0408      271.69562      1898.8874      2.3389605      9386.9143      9.9796641      4.907873       30.799245    
       660   297.63512     -126984.84     -125970.78      10111.539      213.00287      1887.9708      2.3427275      9371.8205      10.13238       5.1749891      33.048006    
       680   304.35593     -127002.1      -125965.14      6558.813       220.44496      1863.6245      2.3447741      9363.6404      10.220003      5.3796849      35.911502    
       700   307.32261     -127005.72     -125958.65     -7162.0979      170.44063      1818.4581      2.3401669      9382.075       10.319436      5.2503506      38.083778    
       720   300.1752      -126977.15     -125954.44     -11014.927      215.78288      1891.2831      2.3359811      9398.8866      10.404328      4.9426936      39.005702    
       740   304.57968     -126990.43     -125952.71      10136.131      327.53881      1939.8841      2.3394791      9384.8334      10.351056      4.7751084      38.678121    
       760   306.67045     -126999.13     -125954.28      2137.6319      428.74309      1991.876       2.3413667      9377.2672      10.110761      4.9495426      37.320153    
       780   309.81034     -127012.65     -125957.11     -11313.746      216.04034      1883.9565      2.3403985      9381.1468      9.8102353      5.2154582      35.418212    
       800   307.59829     -127009.42     -125961.41     -9814.785       184.073        1837.4319      2.3366739      9396.0998      9.6677389      5.2582104      33.644651    
       820   298.1913      -126983.96     -125968         13309.324      259.78481      1991.7831      2.3346076      9404.4162      9.7085852      5.1175381      32.655628    
       840   301.58544     -127005.36     -125977.83     -198.00109      299.34469      1929.7465      2.332042       9414.7626      9.8241806      5.0723388      32.887065    
       860   302.67209     -127019.67     -125988.44     -14781.208      298.54431      1842.2746      2.3318761      9415.4322      9.9253716      5.2400968      34.133147    
       880   297.79256     -127022.52     -126007.92      7430.0343      177.2724       1861.8449      2.3373485      9393.3882      10.001875      5.4522352      35.690196    
       900   297.72937     -127040.48     -126026.09      10424.08       350.46147      1954.2178      2.3368319      9395.4646      10.097732      5.4186615      36.747306    
       920   295.72932     -127046.9      -126039.33     -14184.02       230.60591      1775.3363      2.3329632      9411.0449      10.1407        5.1844399      36.805346    
       940   297.45463     -127063.2      -126049.75     -331.90351      222.88852      1889.0366      2.3340858      9406.5187      10.043788      5.1300118      35.956776    
       960   301.25157     -127081.82     -126055.44      9230.4545      419.76978      1913.8313      2.3361567      9398.1803      9.8576989      5.4205503      34.606862    
       980   295.71335     -127067.03     -126059.51     -14343.768      176.99998      1760.7105      2.3342381      9405.9049      9.7562096      5.8265369      33.203255    
      1000   291.79637     -127055.73     -126061.56      11037.837      317.44612      1904.5303      2.3387221      9387.871       9.8602496      5.9859198      32.011583    
      1020   288.33506     -127042.75     -126060.38      719.79079      227.55586      1883.0926      2.3410097      9378.6972      10.095053      5.8738987      31.567311    
      1040   295.38699     -127064.3      -126057.9      -11477.267      169.08229      1775.0344      2.3419218      9375.0448      10.224649      5.7761384      32.50879     
      1060   295.47769     -127061.54     -126054.83      1216.6619      258.3465       1807.2         2.3390799      9386.4349      10.151057      5.8712155      34.412886    
      1080   292.03142     -127043.13     -126048.16      8550.6669      222.27838      1866.6582      2.333739       9407.9166      9.9985563      6.0391387      36.183053    
      1100   300.53992     -127065.72     -126041.76     -7919.3185      290.94073      1871.1181      2.3284661      9429.2209      9.9070873      6.0137606      36.830765    
      1120   301.75096     -127063.19     -126035.1       938.5898       246.56539      1829.3804      2.3344548      9405.0319      9.884703       5.7699948      35.996991    
      1140   297.17338     -127041.25     -126028.76      6395.4434      168.31188      1804.752       2.343974       9366.8367      9.9013336      5.5036734      34.246628    
      1160   291.73586     -127015.32     -126021.36     -2633.4507      199.09317      1829.8653      2.3433111      9369.4865      9.926565       5.4727225      32.429138    
      1180   288.13476     -126992.81     -126011.11     -3549.0512      278.78435      1950.3715      2.3381432      9390.1955      9.9586503      5.6315519      31.010857    
      1200   294.79787     -127003.15     -125998.75      3056.8518      266.67867      1938.2523      2.3346868      9404.0973      10.000505      5.5950705      30.118801    
      1220   296.95628     -126999.94     -125988.19      2029.191       200.60507      1870.8793      2.3330003      9410.8952      10.048166      5.2500361      30.360644    
      1240   298.69979     -126996.01     -125978.32     -2396.4067      171.29851      1802.3814      2.3310764      9418.6625      10.094695      4.8262974      32.409909    
      1260   295.69546     -126979.05     -125971.6      -3131.7675      263.58642      1875.1684      2.3324642      9413.0584      10.071772      4.6518525      35.81825     
      1280   295.8755      -126971.48     -125963.41      3451.0892      250.62003      1906.437       2.3357773      9399.7067      9.9599375      4.849664       39.082179    
      1300   301.47381     -126983.32     -125956.18      1345.1834      199.46173      1846.0498      2.3369957      9394.8061      9.8030031      5.0133819      40.559843    
      1320   301.29641     -126978.08     -125951.54     -2352.4906      288.15006      1909.872       2.3378498      9391.3738      9.6778002      4.8314752      39.772957    
      1340   300.93481     -126972.03     -125946.72     -2382.7579      230.60583      1915.1785      2.3399214      9383.0594      9.7032862      4.5905951      37.486295    
      1360   307.63488     -126994.73     -125946.59      2393.2021      271.52348      1958.2427      2.3436868      9367.9846      9.8686791      4.6162311      34.759738    
      1380   308.23995     -126997.41     -125947.22      3530.2855      271.15392      2018.9465      2.3421915      9373.9654      10.045408      4.9116373      32.013334    
      1400   305.51029     -126989.39     -125948.49     -3171.6809      243.61225      1929.4989      2.3381861      9390.0231      10.078781      5.1213236      29.299177    
      1420   307.08997     -126997.61     -125951.33     -4793.5552      325.11408      1930.9706      2.3364107      9397.1585      9.9990907      5.0392959      27.361036    
      1440   313.15791     -127026.01     -125959.06      3750.9803      252.28332      1919.1051      2.3394086      9385.1161      9.9543217      4.8759099      27.419208    
      1460   312.95439     -127033.97     -125967.72      7863.5158      278.26273      1889.0096      2.3431115      9370.2845      9.9821629      4.9061057      29.774222    
      1480   300.39592     -127002.52     -125979.06     -2186.8397      270.56978      1915.4298      2.3407096      9379.8999      10.021797      5.1705237      32.949003    
      1500   293.64375     -126990.74     -125990.27     -11753.404      182.34524      1871.508       2.3389333      9387.0234      9.9532601      5.3915401      34.985067    
      1520   293.50811     -126997.81     -125997.81      4699.5145      238.82092      1912.705       2.3433603      9369.2898      9.8242791      5.3166507      35.155218    
      1540   297.99141     -127017.58     -126002.31      12631.21       247.82606      1923.4929      2.3434661      9368.8667      9.8347774      5.1222323      34.282957    
      1560   302.0853      -127035.75     -126006.53      8014.9441      189.99231      1865.1302      2.3385045      9388.7447      9.9635996      5.0620858      33.383831    
      1580   293.91003     -127008.31     -126006.94     -13096.423      218.56749      1845.8767      2.3293855      9425.4993      10.055112      5.2686765      32.633941    
      1600   294.46143     -127011.88     -126008.63     -12109.122      193.65013      1790.9574      2.3287653      9428.0095      9.9123429      5.4867414      31.946411    
      1620   293.30913     -127008.86     -126009.54     -12147.277      210.20612      1746.1457      2.330222       9422.1156      9.6080646      5.3708025      31.442578    
      1640   290.98408     -127000.16     -126008.75     -4237.5323      204.52142      1885.0534      2.3310914      9418.6016      9.3990794      5.0714897      31.558337    
      1660   290.93615     -126993.85     -126002.61      10426.223      333.92821      1976.1384      2.3326727      9412.2171      9.3358842      4.8839704      32.433867    
      1680   296.79014     -127008.16     -125996.97      14407.112      256.73189      1945.743       2.3327602      9411.8639      9.2925928      4.8872678      33.38721     
      1700   303.49522     -127026.53     -125992.5       11583.876      362.04106      1933.6162      2.3342826      9405.7255      9.2004231      4.9696265      33.431307    
      1720   300.08604     -127011.19     -125988.77     -4132.8727      240.44878      1919.2658      2.3328037      9411.6885      9.1416004      4.7965502      32.462275    
      1740   304.02658     -127018.9      -125983.06     -14128.202      333.63339      1866.3582      2.3312986      9417.7648      9.2501944      4.4357341      31.497822    
      1760   301.09149     -127007.2      -125981.36      5411.017       253.00752      1994.9525      2.3327097      9412.0676      9.4588973      4.2353143      31.762025    
      1780   303.08141     -127010.39     -125977.77      10937.257      216.50367      1934.6542      2.3342935      9405.6816      9.5955931      4.3325154      33.215505    
      1800   302.859       -127009.7      -125977.84     -4730.1997      322.26755      1885.5477      2.3330802      9410.5728      9.6236736      4.5697566      34.516112    
      1820   297.47776     -126993.75     -125980.23     -9176.5166      190.32078      1868.4615      2.333401       9409.2792      9.626908       4.6394372      34.758689    
      1840   302.51464     -127010.96     -125980.27      6089.5437      222.88573      1868.2299      2.336227       9397.8974      9.7062449      4.445548       34.208932    
      1860   299.43044     -126999.43     -125979.25      6773.5421      232.17866      1853.8102      2.3373408      9393.419       9.8287727      4.250375       33.766445    
      1880   293.60184     -126978.6      -125978.28     -4869.8309      198.43972      1817.5538      2.3389603      9386.915       9.8860589      4.3052552      34.137814    
      1900   296.1588      -126985.57     -125976.54     -3279.2252      246.41091      1856.4296      2.3425327      9372.5997      9.8375115      4.5507415      34.782842    
      1920   297.3762      -126988.22     -125975.04      3192.9457      228.48116      1944.599       2.340708       9379.9063      9.7415848      4.6504713      34.73444     
      1940   310.45461     -127027.53     -125969.79     -54.043737      230.56716      1862.6277      2.3351923      9402.0616      9.7030446      4.5927399      33.964965    
      1960   320.30112     -127056.5      -125965.21     -3194.7198      184.78739      1758.9096      2.3344589      9405.0151      9.6534505      4.6502077      33.112757    
      1980   310.7639      -127025.85     -125967.06      1908.9329      199.43098      1791.7614      2.3341172      9406.3921      9.5282983      4.8688191      32.567593    
      2000   300.88892     -126999.56     -125974.41      2793.741       223.25573      1830.5829      2.3308625      9419.5265      9.3658545      5.1595799      32.000004    
      2020   289.78273     -126973.67     -125986.36     -103.04474      276.92949      1823.9392      2.3293546      9425.6242      9.1927363      5.2746146      31.509594    
      2040   289.41428     -126987.15     -126001.1      -2731.4239      227.11619      1808.1981      2.3322628      9413.8711      9.1391381      5.1196918      31.898343    
      2060   289.36013     -127000.41     -126014.54     -1613.1567      220.14477      1824.1043      2.3385172      9388.6936      9.2059416      4.941454       33.559472    
      2080   287.63144     -127002.56     -126022.58      1507.7614      255.49715      1814.5384      2.3406423      9380.1697      9.3016012      4.8991719      36.1429      
      2100   304.04919     -127063.38     -126027.47      2267.0562      195.19925      1767.444       2.3397441      9383.7706      9.3934122      4.9870613      38.233839    
      2120   307.41641     -127082.95     -126035.56     -2885.6591      231.73728      1816.5644      2.3417298      9375.8133      9.4611567      5.050638       38.510866    
      2140   302.75678     -127077.51     -126046        -601.23117      206.41092      1765.1603      2.3442754      9365.6322      9.5989557      4.9872682      37.039017    
      2160   295.34604     -127060.61     -126054.34      4570.1275      202.48494      1804.5187      2.3411943      9377.9578      9.8198609      4.9512332      34.837177    
      2180   288.89156     -127044.23     -126059.96     -6539.2892      288.69439      1810.154       2.3350128      9402.7842      9.9273728      5.0237809      32.80607     
      2200   294.54677     -127068.13     -126064.59      9556.1205      178.49506      1783.7787      2.3377851      9391.6339      9.8608424      5.0893704      31.226802    
      2220   290.19237     -127055.27     -126066.56     -11072.287      254.16693      1878.0276      2.337671       9392.092       9.8002793      5.0056615      30.138285    
      2240   289.45989     -127051.93     -126065.72      12192.845      357.19974      2038.3977      2.3443681      9365.2619      9.8957664      4.7765951      29.501908    
      2260   292.8897      -127059.47     -126061.57     -10910.993      178.53209      1782.6921      2.3435766      9368.425       10.078353      4.5941938      29.581015    
      2280   284.04691     -127024.49     -126056.72      13787.699      274.40797      1901.2739      2.344565       9364.4755      10.062709      4.5209365      30.818237    
      2300   294.46203     -127048.11     -126044.86     -14873.779      300.43641      1812.7609      2.3365353      9396.6572      9.8115628      4.5284447      32.894183    
      2320   298.09159     -127051.14     -126035.52      17305.533      297.58947      1949.2402      2.3375718      9392.4908      9.4836368      4.5304193      34.513331    
      2340   295.28541     -127028.71     -126022.65     -15025.105      173.02549      1785.1838      2.3357904      9399.6538      9.3798114      4.4712666      34.80288     
      2360   304.62095     -127049.73     -126011.87     -6694.139       225.65981      1832.4506      2.3368666      9395.325       9.4978111      4.465778       33.675611    
      2380   304.36716     -127039.48     -126002.48      17896.933      291.86848      1840.1895      2.3364451      9397.0199      9.5348534      4.5258451      31.902598    
      2400   304.50335     -127033.07     -125995.61     -13995.865      246.15614      1739.8034      2.3322508      9413.9196      9.3778369      4.6368702      30.416192    
      2420   291.54615     -126986.16     -125992.84     -10856.205      194.77092      1816.5688      2.3354901      9400.8627      9.1918161      4.7057004      29.76096     
      2440   289.89301     -126975.67     -125987.98      13832.571      227.21562      1890.4695      2.3370533      9394.5746      9.2658461      4.649852       30.242475    
      2460   308.58562     -127036        -125984.62     -2823.4264      273.97545      1748.4881      2.3304935      9421.0183      9.5295311      4.5998909      31.606877    
      2480   302.4297      -127012.66     -125982.26     -268.08426      331.32414      1952.4809      2.3313729      9417.4647      9.6151761      4.6725943      33.327855    
      2500   301.45586     -127009.11     -125982.03      8630.5618      204.36541      1796.1742      2.3375906      9392.4153      9.5079893      4.8743528      34.71119     
      2520   297.39103     -126993.09     -125979.86     -10597.449      245.22069      1829.1277      2.334724       9403.9473      9.4963284      5.1499371      34.935501    
      2540   298.29592     -126994.57     -125978.25      2545.2023      219.36947      1847.869       2.3331371      9410.3434      9.6862864      5.360913       33.840737    
      2560   309.09237     -127029.95     -125976.86      5359.8489      241.36312      1762.583       2.3322448      9413.9437      9.9146859      5.438651       32.054549    
      2580   302.30822     -127008.45     -125978.47     -8382.2704      214.57305      1786.3831      2.3345061      9404.825       9.9143539      5.3835614      30.601096    
      2600   301.92066     -127010.21     -125981.55      8066.8963      377.43707      1869.5874      2.3405768      9380.4321      9.7301646      5.2267229      30.306932    
      2620   305.51177     -127024.34     -125983.44      1930.0973      293.36561      1823.914       2.3402952      9381.5607      9.5947503      5.005093       31.020592    
      2640   299.91756     -127007.47     -125985.63     -6389.0958      211.15126      1803.3671      2.3383528      9389.3536      9.5934952      4.7898886      31.966411    
      2660   301.53328     -127018.98     -125991.64      5899.562       208.13963      1745.383       2.3420347      9374.5927      9.6383926      4.652655       32.727122    
      2680   294.77966     -127003.12     -125998.79      4502.7853      247.41555      1795.4399      2.3453827      9361.2107      9.652378       4.6481773      33.378596    
      2700   292.26193     -126999.39     -126003.64     -4811.5622      271.42992      1860.6669      2.3425155      9372.6686      9.6941189      4.7171716      34.089555    
      2720   301.54539     -127039.88     -126012.49      640.6561       177.34707      1759.7801      2.3410407      9378.5731      9.755583       4.7194927      34.71334     
      2740   297.5332      -127035.49     -126021.78      3618.8803      250.0448       1773.3764      2.3394839      9384.8141      9.8013701      4.6328765      34.911452    
      2760   295.02202     -127039.37     -126034.21     -3998.8839      273.61929      1820.2391      2.3378334      9391.4399      9.7977866      4.4911722      34.221636    
      2780   294.22999     -127052.25     -126049.79      4011.3731      207.24074      1770.6364      2.3397807      9383.6235      9.7734078      4.4608569      32.686936    
      2800   292.98002     -127061.69     -126063.49     -3913.933       243.71346      1749.5708      2.3378883      9391.2191      9.8127941      4.5579323      31.203268    
      2820   295.57084     -127080.38     -126073.35      3725.6743      196.25752      1807.3448      2.338281       9389.642       9.8708548      4.6123859      30.554606    
      2840   292.38901     -127078.56     -126082.37     -3332.7078      216.02729      1808.5372      2.3386461      9388.1761      9.8840299      4.613634       30.836721    
      2860   293.66952     -127087.67     -126087.12      1826.6735      301.60709      1722.2426      2.3412537      9377.7201      9.8770058      4.6178742      31.940161    
      2880   289.21465     -127074.29     -126088.92      721.72954      283.60324      1784.5761      2.3351701      9402.1508      9.8882904      4.6920841      33.481182    
      2900   281.91336     -127048.88     -126088.38     -2156.1271      250.22807      1769.9748      2.3286251      9428.5774      9.8483117      4.8018792      34.736995    
      2920   287.02681     -127062.87     -126084.95      1316.4071      182.4105       1785.0114      2.3298583      9423.5864      9.733083       4.8562547      34.85534     
      2940   292.45443     -127074.34     -126077.92     -779.72614      183.14103      1772.8353      2.3355633      9400.568       9.6252016      4.7814888      33.493763    
      2960   293.22216     -127069.35     -126070.32     -918.65055      238.13626      1811.3252      2.3393632      9385.2985      9.6044098      4.5536325      31.172856    
      2980   291.8618      -127053.91     -126059.52      1015.3937      272.31975      1972.3585      2.3360801      9398.4882      9.6598529      4.3296564      28.981047    
      3000   293.04017     -127048.54     -126050.14     -1212.5814      180.91262      1779.0803      2.332949       9411.1021      9.6649841      4.2791405      28.232072    
      3020   295.89253     -127052.07     -126043.94      602.70788      466.10063      1886.3019      2.3318642      9415.4804      9.5803698      4.3235773      29.273724    
      3040   299.15679     -127056.66     -126037.41      69.563789      244.1479       1805.4829      2.3324316      9413.1897      9.5862683      4.3657916      31.193338    
      3060   307.25319     -127079.32     -126032.48     -470.9046       210.16281      1778.6505      2.3325662      9412.6469      9.7801165      4.3947902      32.944928    
      3080   309.59643     -127084.99     -126030.17      481.98917      455.94938      1903.6525      2.3322988      9413.7258      10.059687      4.4632011      33.882744    
      3100   297.99243     -127046.63     -126031.35     -496.54905      217.1988       1859.9334      2.3347871      9403.6933      10.249384      4.6238695      33.853694    
      3120   287.71584     -127009.94     -126029.67      535.43548      189.09533      1865.4769      2.3396813      9384.0222      10.245661      4.7029881      33.399916    
      3140   295.25294     -127034.05     -126028.1      -746.48302      299.72474      1887.1234      2.3404875      9380.7899      10.206902      4.6143984      33.185008    
      3160   302.41174     -127055.41     -126025.07      952.58674      258.76194      1817.1546      2.3403914      9381.1753      10.247088      4.4191606      33.306302    
      3180   300.8056      -127048.09     -126023.22     -655.69664      290.5018       1833.5176      2.3411577      9378.1043      10.317188      4.2716542      33.444977    
      3200   298.39577     -127037.02     -126020.37     -114.49302      266.82392      1895.2555      2.3414973      9376.7442      10.32993       4.2719436      33.334619    
      3220   301.94266     -127045.05     -126016.31      864.44979      268.31215      1863.1873      2.341257       9377.7069      10.239317      4.3039573      33.181414    
      3240   309.80299     -127069.18     -126013.66     -932.61371      179.76866      1761.2698      2.3410696      9378.4573      10.137271      4.1976596      33.265314    
      3260   303.41877     -127046.5      -126012.73      1978.2945      175.88639      1769.1752      2.3435317      9368.6043      10.122915      3.9403553      33.431093    
      3280   288.71339     -126997.01     -126013.35     -2553.9139      214.52595      1909.7587      2.3446352      9364.195       10.173301      3.6209933      32.941268    
      3300   291.78873     -127005.8      -126011.66      2656.9926      189.35737      1827.0812      2.3471781      9354.05        10.183292      3.3718756      31.340859    
      3320   298.2721      -127022.81     -126006.58     -764.9603       200.3279       1730.9558      2.347215       9353.9031      10.108273      3.2494462      29.178662    
      3340   301.43774     -127024.58     -125997.56     -784.13474      347.19057      1919.9022      2.3435741      9368.4351      9.996206       3.1153594      27.445871    
      3360   307.47013     -127034.22     -125986.64      205.92362      189.96829      1824.8742      2.3429533      9370.9173      9.9489103      2.9587986      26.785129    
      3380   305.16852     -127015.43     -125975.7      -2511.0118      219.37837      1818.5328      2.345558       9360.511       10.044665      2.9212531      27.284608    
      3400   303.94687     -126998.35     -125962.78      4187.4775      193.41633      1819.1152      2.3476489      9352.1744      10.243422      3.0805954      29.008787    
      3420   302.50894     -126981.23     -125950.56     -2565.5382      226.51116      1859.3443      2.3454595      9360.9042      10.414397      3.3966999      31.728085    
      3440   307.57547     -126986.87     -125938.94     -2107.2072      198.77099      1853.0847      2.3450257      9362.6357      10.444338      3.6008382      34.540509    
      3460   306.99251     -126976.35     -125930.4       5715.3461      267.67654      1943.6012      2.3461296      9358.2305      10.375938      3.6239212      36.219714    
      3480   299.63382     -126943.99     -125923.12     -7891.1503      245.37302      1897.3823      2.3445999      9364.3359      10.320593      3.6075792      35.940197    
      3500   309.59288     -126973.44     -125918.64      7589.0241      211.18654      1776.7212      2.3445014      9364.7294      10.292086      3.6602156      33.951498    
      3520   309.08996     -126970.68     -125917.59     -1950.6957      169.84395      1761.8638      2.3395032      9384.7365      10.21279       3.8102436      31.506333    
      3540   302.35314     -126947.34     -125917.2      -8650.5237      255.70264      1942.8975      2.3344907      9404.8873      9.998456       3.8809585      29.837119    
      3560   303.73943     -126954.3      -125919.44      13393.327      219.56215      1872.4683      2.33607        9398.5289      9.7234121      3.8563954      29.517795    
      3580   294.94728     -126925.33     -125920.42     -6792.5742      163.39186      1804.7513      2.3333536      9409.4702      9.5637834      3.8596211      30.502022    
      3600   303.47313     -126955.54     -125921.59     -12925.135      190.46928      1796.4516      2.3300858      9422.6667      9.6010047      3.9467232      32.254758    
      3620   310.92548     -126981.23     -125921.89     -1519.2652      276.20178      1783.9927      2.3276734      9432.4321      9.6519763      4.02787        33.96165     
      3640   306.4063      -126973.91     -125929.97      11769.732      238.95941      1854.5756      2.3268964      9435.5818      9.4969336      3.8411964      34.756875    
      3660   303.67101     -126975.45     -125940.82      16736.336      364.73333      1877.6341      2.3291965      9426.264       9.2670656      3.4306999      34.128674    
      3680   293.88106     -126961.66     -125960.39      10108.455      176.02378      1825.1632      2.3299344      9423.2788      9.2085569      3.1376165      32.260717    
      3700   300.04082     -127004.6      -125982.34     -2413.1156      205.3715       1727.0189      2.3260913      9438.8476      9.3661443      3.1420229      29.998477    
      3720   299.56014     -127018.97     -125998.35     -17102.202      259.50226      1771.3545      2.3230204      9451.3254      9.5450699      3.362008       28.03852     
      3740   291.67339     -127006.45     -126012.7      -4614.947       225.6311       1804.0639      2.326911       9435.5228      9.5762976      3.5597991      26.789833    
      3760   288.82429     -127003.84     -126019.79      13143.368      233.46017      1830.1164      2.334034       9406.7272      9.5432204      3.5373986      26.552224    
      3780   288.59986     -127003.86     -126020.58      10546.729      299.41686      1937.436       2.3368001      9395.5925      9.684363       3.4741962      27.467683    
      3800   295.70273     -127026.97     -126019.49     -10863.523      259.46589      1830.8316      2.332455       9413.0954      9.9834999      3.5702666      29.425548    
      3820   296.37742     -127027.56     -126017.79     -5166.611       305.62519      1863.8251      2.3311989      9418.1675      10.152316      3.7099022      32.012909    
      3840   296.43487     -127025.47     -126015.49      9988.3573      319.39807      1919.3114      2.3336514      9408.2695      10.064311      3.7055568      34.740913    
      3860   302.48661     -127043.01     -126012.42     -4377.967       230.72136      1840.3509      2.3354249      9401.1252      9.8952948      3.4731431      36.878303    
      3880   303.7449      -127045.73     -126010.85     -3093.4458      217.60211      1830.6971      2.3376427      9392.206       9.9110435      3.2741851      37.514664    
      3900   302.42736     -127037.37     -126006.98      5572.0231      300.70436      1863.7144      2.3379534      9390.9575      10.115478      3.4062106      36.371776    
      3920   296.90146     -127017.93     -126006.36     -3187.9191      242.35556      1881.0204      2.3378813      9391.2472      10.190114      3.7049944      33.979147    
      3940   305.26102     -127043.58     -126003.54     -3125.5144      204.44932      1819.3743      2.3392676      9385.682       10.007793      3.889714       31.632687    
      3960   312.19031     -127065.97     -126002.32      4405.8383      231.41677      1759.2025      2.3403198      9381.4623      9.7671167      3.859628       30.60147     
      3980   307.71605     -127053.32     -126004.91     -353.74112      163.4396       1791.5828      2.3382482      9389.7739      9.714749       3.7503689      31.114797    
      4000   299.20877     -127027.9      -126008.47     -2406.3457      358.6647       1977.5985      2.3390834      9386.4211      9.7984639      3.8206232      32.365471    
      4020   289.5402      -127001.2      -126014.72      4356.5278      197.78132      1857.0752      2.3445128      9364.6841      9.7955439      4.0387316      33.477046    
      4040   293.05886     -127017.67     -126019.2      -3365.9497      183.46855      1779.6332      2.3448878      9363.1864      9.6710265      4.1661385      34.188423    
      4060   298.47382     -127038.73     -126021.81      1438.8226      214.23661      1820.1712      2.3433228      9369.4395      9.5845067      4.1643298      34.875666    
      4080   296.65245     -127034.46     -126023.74      1586.3836      265.7891       1851.2726      2.3403398      9381.3818      9.7043304      4.2236481      35.738251    
      4100   296.55023     -127035.82     -126025.46     -2819.0368      256.7101       1803.6386      2.3377931      9391.6016      9.9446018      4.4570692      36.400419    
      4120   289.03694     -127012.77     -126028         5741.1413      260.09294      1843.4379      2.3390883      9386.4013      10.081704      4.7159116      36.276726    
      4140   291.52072     -127022.13     -126028.9      -7775.2308      195.00616      1729.9306      2.3370232      9394.6957      10.057643      4.8487368      35.492823    
      4160   293.49519     -127026.21     -126026.26      4507.7258      251.24227      1772.889       2.3372536      9393.7695      9.9134102      4.7333724      34.656463    
      4180   290.26022     -127010.04     -126021.1       3116.6676      260.83277      1790.6201      2.3372802      9393.6625      9.8094108      4.512932       34.023018    
      4200   299.32779     -127031.22     -126011.39     -10499.034      189.49207      1725.8328      2.338693       9387.9879      9.8030573      4.4471372      33.753356    
      4220   299.67745     -127020.73     -125999.71      9655.8636      229.15137      1727.641       2.3435196      9368.6528      9.7769137      4.4773711      34.03973     
      4240   299.33062     -127007.33     -125987.49      4398.9337      208.78555      1819.5503      2.3400795      9382.4256      9.7118515      4.4711308      34.828415    
      4260   301.52732     -127001.09     -125973.77     -14364.249      240.69542      1838.4158      2.3340083      9406.8308      9.6011153      4.3272242      35.749164    
      4280   304.68046     -127002.45     -125964.39      14404.79       280.42611      1832.0071      2.33668        9396.0753      9.5292747      4.1405836      36.314689    
      4300   307.54082     -127004.84     -125957.03      64.989442      236.97133      1899.3788      2.3341831      9406.1264      9.6294448      4.1304039      36.328349    
      4320   302.79264     -126980.1      -125948.47     -14479.965      182.40218      1857.8608      2.3317349      9416.0024      9.7503989      4.165625       35.892388    
      4340   306.67971     -126990.77     -125945.89      18188.181      286.4733       1977.7001      2.3354374      9401.0747      9.7140341      4.1141676      35.113562    
      4360   310.93628     -127005.5      -125946.12     -13640.713      201.25545      1817.197       2.3330028      9410.8854      9.5579641      4.0512336      34.361498    
      4380   304.61038     -126985.23     -125947.4      -4136.5495      242.58236      1888.3114      2.3354748      9400.9242      9.4299708      4.0406292      34.047749    
      4400   306.99345     -126995.52     -125949.57      15367.667      221.88143      1875.1241      2.3360991      9398.412       9.5071742      4.2256266      34.131849    
      4420   299.73236     -126977.8      -125956.59      1257.825       241.7308       1869.0549      2.3297559      9424.001       9.6624223      4.5521441      34.408714    
      4440   301.56858     -126988.37     -125960.91     -11182.693      219.56732      1884.2586      2.3281528      9430.4898      9.6776217      4.8663396      35.021754    
      4460   310.229       -127025.39     -125968.42      5606.0035      208.43969      1792.549       2.3336627      9408.2239      9.5564629      5.090447       36.453645    
      4480   307.82277     -127026.8      -125978.03      13014.465      334.30308      1848.8467      2.3344129      9405.2004      9.4899421      5.2625671      38.603939    
      4500   300.55257     -127013.51     -125989.51      4173.5128      258.73076      1903.2876      2.3316158      9416.4834      9.586248       5.5016785      40.307355    
      4520   295.1014      -127008.58     -126003.15     -11374.97       232.29933      1812.0047      2.3331708      9410.2077      9.655555       5.6798467      40.437498    
      4540   293.42892     -127013.5      -126013.77     -8212.1414      280.18867      1837.5338      2.3389308      9387.0336      9.6003643      5.6689023      38.937151    
      4560   297.89583     -127036.39     -126021.44      303.20354      318.30151      1814.0845      2.3430649      9370.4709      9.5516967      5.577295       36.75559     
      4580   294.60242     -127030.7      -126026.97      10130.752      265.7604       1864.5276      2.3432582      9369.6981      9.6294217      5.5290742      34.95485     
      4600   292.97281     -127025.53     -126027.36      2636.1988      241.58814      1858.4446      2.3441562      9366.1087      9.8426169      5.6106812      34.045208    
      4620   296.54054     -127037.41     -126027.08     -6869.1602      267.26574      1811.3623      2.3449688      9362.8629      10.042733      5.7109831      33.811259    
      4640   299.92497     -127049.48     -126027.62     -5665.0257      342.68238      1920.6708      2.3432156      9369.8683      10.145636      5.6256147      33.927685    
      4660   303.7077      -127062.39     -126027.64      5933.3441      230.67383      1795.4995      2.3417526      9375.7222      10.185001      5.3761175      34.332675    
      4680   295.53295     -127036.01     -126029.11     -119.4625       262.72357      1830.4676      2.3408195      9379.4596      10.241867      5.1728083      34.908474    
      4700   290.21016     -127016.5      -126027.73     -4803.8061      200.31504      1783.2471      2.3440511      9366.5286      10.36525       5.1579805      35.409905    
      4720   288.3039      -127005.86     -126023.59      3585.3404      201.21292      1880.421       2.3474897      9352.8085      10.446549      5.1889946      35.695876    
      4740   294.76683     -127023.94     -126019.65      369.209        317.29313      1896.602       2.3455107      9360.6999      10.404396      5.1661783      35.607941    
      4760   300.53382     -127036.36     -126012.42     -3474.3912      266.40756      1864.7196      2.3411857      9377.9924      10.245515      5.0982762      34.885123    
      4780   302.3318      -127036.94     -126006.87      3321.2134      273.75887      1782.6434      2.3390156      9386.6933      10.055033      5.0858508      33.66014     
      4800   291.75049     -126996.98     -126002.97     -330.49342      370.67742      2028.2021      2.336352       9397.3947      9.9768806      5.2472058      32.529527    
      4820   292.63243     -126993.74     -125996.72     -2434.9684      212.55458      1880.8358      2.3327649      9411.845       9.9419207      5.3570769      31.991729    
      4840   304.93579     -127026.85     -125987.91      3331.1569      247.53196      1778.9379      2.3329706      9411.0152      9.844699       5.2433835      32.02019     
      4860   306.84602     -127025.27     -125979.83     -2617.3462      227.55913      1883.3454      2.3327765      9411.7981      9.6922621      5.0344279      32.531267    
      4880   308.71051     -127026.18     -125974.38      1746.3402      221.78774      1904.7759      2.3347003      9404.0429      9.5545683      4.8806662      33.535164    
      4900   306.11481     -127016.79     -125973.84     -202.9018       233.71816      1888.3206      2.3372005      9393.9829      9.5511989      4.8934298      35.053231    
      4920   301.19474     -126999.8      -125973.61      314.15344      237.96767      1947.435       2.3353824      9401.2962      9.6443068      4.9804877      36.334915    
      4940   306.56799     -127018.09     -125973.59     -2013.5363      230.76295      1880.823       2.3325691      9412.635       9.7135767      5.0214785      36.245083    
      4960   313.30447     -127043.63     -125976.18      2281.916       288.95831      1897.9652      2.3314866      9417.0053      9.7688037      5.0962247      34.562907    
      4980   310.72069     -127040.82     -125982.18     -3674.4202      238.42831      1900.4083      2.3294346      9425.3005      9.8787888      5.2174914      32.23362     
      5000   302.81492     -127022.18     -125990.47      132.71605      177.80198      1807.5882      2.3298011      9423.8178      10.079916      5.3889383      30.71102     
      5020   294.11239     -127007.47     -126005.41     -3608.3976      313.62676      1901.3831      2.3321593      9414.2889      10.263862      5.4738067      30.710423    
      5040   291.13214     -127010.37     -126018.46      8628.3508      210.63109      1911.263       2.3369018      9395.1837      10.305068      5.4072997      32.032573    
      5060   293.68374     -127032.39     -126031.79     -3111.446       197.86269      1757.37        2.3381792      9390.0507      10.23537       5.3231097      34.025525    
      5080   291.693       -127037.22     -126043.41     -6703.6332      292.71475      1809.7182      2.337925       9391.0718      10.131312      5.3483811      35.850075    
      5100   288.22745     -127032.7      -126050.69      11107.115      264.33086      1907.7896      2.3369821      9394.8608      10.028971      5.460548       37.033357    
      5120   287.95767     -127037.75     -126056.66     -9252.8524      238.56564      1868.2363      2.3326943      9412.1297      9.9467634      5.5242584      37.124669    
      5140   300.44575     -127082.88     -126059.24      12130.193      231.38462      1777.6253      2.337932       9391.0435      9.866093       5.4609465      35.820165    
      5160   298.4999      -127076.85     -126059.84     -17844.05       333.103        1820.4328      2.3335402      9408.718       9.8469688      5.3441982      33.664084    
      5180   288.25096     -127040.78     -126058.69      12839.117      208.8311       1865.7079      2.3373822      9393.2527      9.8601758      5.2726228      31.525037    
      5200   284.08789     -127025.44     -126057.53      7065.7687      209.27258      1791.865       2.3373755      9393.2797      9.8457566      5.1582591      30.510689    
      5220   280.15049     -127006.92     -126052.43     -17051.423      185.06726      1760.5524      2.3377817      9391.6473      9.7907806      4.9246483      31.035043    
      5240   293.70536     -127048.41     -126047.74      5344.9589      181.66385      1771.7322      2.3426432      9372.1577      9.7561578      4.5895593      32.287728    
      5260   297.45392     -127054.83     -126041.38      10148.232      439.80034      1855.371       2.343168       9370.0585      9.7883176      4.329901       33.496151    
      5280   300.87678     -127060.16     -126035.05     -15791.489      238.88126      1748.5841      2.3410773      9378.4264      9.8929754      4.3327809      34.481457    
      5300   302.7487      -127063.88     -126032.4       5807.6114      246.58982      1802.866       2.3451161      9362.2749      10.000319      4.4624235      35.415136    
      5320   297.2114      -127041.78     -126029.16      9179.7599      184.74408      1799.3843      2.3445932      9364.3628      10.092405      4.5113021      36.032207    
      5340   298.15767     -127041.47     -126025.62     -12173.87       209.08342      1803.2044      2.3403388      9381.3861      10.194395      4.4679627      35.386983    
      5360   298.83757     -127041.42     -126023.26      12172.693      303.24884      1820.06        2.3453408      9361.3781      10.270735      4.3689294      33.086516    
      5380   300.36667     -127042.4      -126019.03     -2974.282       226.77924      1859.2781      2.3457203      9359.8632      10.341637      4.3488332      30.232614    
      5400   302.90372     -127047.3      -126015.29     -4777.6419      187.48454      1820.9031      2.3473471      9353.3766      10.312644      4.3542457      28.863535    
      5420   299.56367     -127031.77     -126011.14      7943.9515      225.72477      1807.7258      2.3500204      9342.7366      10.15392       4.2251269      30.11213     
      5440   301.92951     -127036.6      -126007.91     -7838.1304      251.28014      1790.6172      2.3462736      9357.6559      9.995555       4.1103989      32.807591    
      5460   299.53083     -127023.13     -126002.61      7267.5491      217.33038      1839.3207      2.3491264      9346.2919      9.8902182      4.1236397      34.912773    
      5480   302.23687     -127028.24     -125998.5      -5811.129       176.4943       1790.8627      2.3466137      9356.3         9.9192889      4.3121909      35.641502    
      5500   302.3841      -127025.31     -125995.07      5972.9038      311.74367      1869.5334      2.3436655      9368.0695      10.000709      4.554531       35.109486    
      5520   302.02083     -127018.65     -125989.65     -3965.8584      235.13076      1786.7058      2.337566       9392.514       9.9631136      4.5686226      33.736377    
      5540   304.12765     -127021.51     -125985.33      1400.2492      247.84304      1866.094       2.3352319      9401.902       9.7952254      4.4330293      31.97547     
      5560   302.78766     -127011.81     -125980.19      383.26929      271.9879       1920.1906      2.3353391      9401.4704      9.6209534      4.3797969      30.235568    
      5580   307.52982     -127024.47     -125976.7      -3022.1563      284.53673      1820.4511      2.3336831      9408.1416      9.5633613      4.4372195      29.268594    
      5600   310.83354     -127033.37     -125974.34      3915.8184      251.89058      1777.943       2.330831       9419.654       9.5834164      4.558731       29.86341     
      5620   308.43214     -127024.23     -125973.38     -3092.3267      195.82948      1836.7411      2.328265       9430.0353      9.5134918      4.5621881      32.03926     
      5640   310.61023     -127033.63     -125975.36      2048.806       237.60685      1830.1157      2.3303613      9421.5525      9.3512913      4.4218855      34.524814    
      5660   309.59904     -127036.09     -125981.27     -389.6446       160.08977      1737.771       2.3327632      9411.8519      9.2622286      4.3380225      35.874372    
      5680   300.5218      -127015.18     -125991.28     -1301.6941      240.42282      1815.6845      2.3323728      9413.4274      9.3673366      4.3969076      35.627676    
      5700   291.24202     -126995.32     -126003.04      1504.6243      235.23508      1847.625       2.3299986      9423.0193      9.5640644      4.4658711      34.265635    
      5720   287.39304     -126994.9      -126015.73     -804.9814       199.48208      1773.9672      2.3281233      9430.6095      9.6019874      4.2928799      32.626898    
      5740   289.80381     -127010.7      -126023.31      195.77028      231.65247      1874.3307      2.326691       9436.4148      9.4481086      3.9347733      31.083753    
      5760   294.38469     -127030.32     -126027.33      119.94798      219.68636      1813.4776      2.3252507      9442.2597      9.2871424      3.7128506      29.854666    
      5780   292.56664     -127027.68     -126030.88      51.36457       215.21654      1755.7579      2.327345       9433.7631      9.2532553      3.6865068      29.723706    
      5800   288.9902      -127018.03     -126033.43      152.73742      213.60237      1844.1454      2.3307879      9419.8281      9.3144688      3.7006811      31.521392    
      5820   289.31924     -127016.75     -126031.02     -478.88369      214.95273      1897.2823      2.3349081      9403.2057      9.3570498      3.6172686      34.912116    
      5840   299.51611     -127046.98     -126026.51      323.00484      297.04429      1907.9277      2.3372085      9393.9508      9.3263785      3.3771766      38.205648    
      5860   308.05655     -127071.04     -126021.47     -600.70952      205.1947       1802.2574      2.3352627      9401.7782      9.3212771      3.2402148      39.861713    
      5880   304.1865      -127052.89     -126016.51      541.11288      266.48709      1852.5575      2.330152       9422.399       9.4701257      3.3670476      39.474921    
      5900   297.35312     -127024.86     -126011.75     -645.95196      305.87123      1855.47        2.3276611      9432.482       9.6667757      3.5109275      37.668033    
      5920   297.03317     -127016.83     -126004.82     -7.6674422      215.64773      1780.2475      2.3300575      9422.7811      9.6929234      3.4790677      35.53912     
      5940   294.6696      -126997.78     -125993.82      837.63147      170.53722      1772.7843      2.3331198      9410.4133      9.5341697      3.3429523      33.879157    
      5960   293.54543     -126977.72     -125977.59     -285.98654      322.33239      2064.7122      2.3346757      9404.1418      9.361249       3.3558651      32.868531    
      5980   301.37526     -126987.26     -125960.45     -1246.9944      152.51611      1776.9256      2.3392289      9385.837       9.3044079      3.6021694      32.923343    
      6000   307.04201     -126991.62     -125945.51      1624.4855      188.27122      1773.7111      2.3428851      9371.1899      9.3648193      3.8575642      34.371389    
      6020   314.4449      -127007.13     -125935.79      1345.7486      278.46981      1794.9427      2.3444775      9364.8249      9.3880453      3.869139       36.441208    
      6040   311.03206     -126991        -125931.3      -3232.5752      248.16414      1776.9755      2.3417836      9375.5979      9.2707019      3.6745561      37.638044    
      6060   308.78202     -126983.09     -125931.05     -932.43004      171.95601      1783.6508      2.3378105      9391.5319      9.10313        3.6134058      37.04226     
      6080   306.31217     -126977.04     -125933.41      4131.7175      258.21076      1854.1445      2.3349777      9402.9256      9.0498888      3.8540861      34.977864    
      6100   302.44574     -126966.83     -125936.37     -2896.7263      241.51712      1833.8748      2.3350399      9402.6749      9.1323318      4.1668821      32.664875    
      6120   300.88995     -126963.4      -125938.25     -2626.3225      288.69357      1847.5187      2.3383416      9389.3989      9.1850199      4.2305031      31.263989    
      6140   305.48176     -126983.74     -125942.95      4095.3197      370.08427      1822.0922      2.3403375      9381.3912      9.1446503      4.1116002      31.11244     
      6160   311.95019     -127011.33     -125948.5       2185.0818      250.23648      1863.5193      2.3374345      9393.0426      9.1280971      4.1121598      31.905587    
      6180   305.62244     -126996.39     -125955.11     -6854.3119      271.0693       1906.5324      2.3340038      9406.8493      9.2359462      4.3108067      33.33076     
      6200   298.87534     -126983.6      -125965.31      5987.5929      233.51892      1846.3327      2.3358219      9399.5272      9.4476951      4.5028492      35.173974    
      6220   305.13615     -127013.39     -125973.77     -2245.0815      272.18876      1757.796       2.3346116      9404.4         9.6064305      4.4258246      36.847113    
      6240   297.31323     -126995.38     -125982.42     -7798.6117      246.97654      1851.5635      2.3333938      9409.3081      9.5792633      4.1235829      37.582958    
      6260   299.11379     -127009.79     -125990.69      10714.093      316.02559      1889.2287      2.3348541      9403.4233      9.4577092      3.962215       37.110852    
      6280   295.42505     -127003.78     -125997.25     -2875.9567      320.69907      1796.8277      2.3291181      9426.5813      9.3616998      4.069448       35.801457    
      6300   289.61077     -126987.03     -126000.3      -7140.8735      209.50146      1817.1736      2.3273857      9433.5983      9.3146856      4.1961069      34.17941     
      6320   298.30992     -127017.56     -126001.2       15511.003      305.47891      1863.803       2.3323168      9413.6533      9.2609128      4.1333585      32.910328    
      6340   296.24262     -127008.91     -125999.59     -17517.428      190.11612      1787.575       2.3300252      9422.9116      9.2031884      3.8945225      32.513467    
      6360   298.86695     -127018.38     -126000.12      12974.713      226.20006      1849.2009      2.3358564      9399.3885      9.2166197      3.7708012      33.010095    
      6380   302.58631     -127030.15     -125999.22      2392.5327      259.1787       1760.5226      2.333249       9409.8923      9.3235079      3.9372548      34.432252    
      6400   295.17955     -127004.22     -125998.52     -12101.664      219.45325      1803.7074      2.3309191      9419.298       9.4299462      4.1277015      36.452112    
      6420   291.04419     -126989.1      -125997.49      20266.466      267.96285      1923.7313      2.3367326      9395.864       9.4793052      4.0512032      38.312335    
      6440   289.27315     -126979.18     -125993.61     -19599.164      185.72331      1779.4368      2.3316009      9416.5434      9.4969094      3.8221308      39.133488    
      6460   296.38365     -126999.2      -125989.4       11129.342      171.15243      1779.2379      2.3337053      9408.0521      9.5220178      3.7405971      38.367371    
      6480   301.4828      -127011.62     -125984.45     -487.22694      191.73476      1801.9685      2.328615       9428.6179      9.606243       3.9946078      36.373481    
      6500   305.12733     -127019.99     -125980.4      -4682.291       194.32063      1841.4961      2.3285412      9428.9171      9.6933952      4.4138379      34.106409    
      6520   309.67233     -127033.72     -125978.64      8302.4206      254.0915       1834.9015      2.3351224      9402.3428      9.7789812      4.6336843      32.669029    
      6540   301.92834     -127006.94     -125978.25     -11464.281      260.99148      1819.5358      2.3365943      9396.4201      9.9142124      4.6269073      32.570518    
      6560   299.23982     -126999.06     -125979.54      7934.1141      335.40198      1988.8146      2.3398261      9383.4416      10.063291      4.6912632      33.659461    
      6580   297.26029     -126993.15     -125980.36     -3756.6029      212.98142      1904.8037      2.3401832      9382.0097      10.131403      4.9158346      35.511717    
      6600   300.53795     -127003.55     -125979.59      1382.1257      264.52079      1818.5403      2.343341       9369.3669      10.099503      5.1791547      37.552962    
      6620   302.07971     -127008.99     -125979.78      5102.9884      377.44245      1929.5153      2.3422131      9373.8789      10.022392      5.1991185      39.137076    
      6640   301.65815     -127009.78     -125982.01     -5844.6818      371.51643      1868.2661      2.3360384      9398.6563      9.9519845      4.9675061      39.633193    
      6660   301.98309     -127011.4      -125982.52      4553.3826      224.80538      1856.8367      2.33798        9390.851       9.9222077      4.8464005      38.910897    
      6680   301.81809     -127014.86     -125986.55     -1868.3323      181.83401      1819.6872      2.3399178      9383.0739      9.9719818      5.0146411      37.518826    
      6700   301.27545     -127014.6      -125988.14     -1411.1129      321.525        1848.7642      2.3410957      9378.3528      10.066465      5.2693877      36.136309    
      6720   301.82988     -127017.38     -125989.02      4925.6587      268.78845      1870.3539      2.3395275      9384.6394      10.128881      5.2771488      35.223496    
      6740   295.31791     -126994.33     -125988.16     -5660.628       297.26898      1874.082       2.3350349      9402.6953      10.142688      5.0240847      34.981968    
      6760   300.97706     -127015.94     -125990.49      2317.2282      180.89069      1811.4122      2.3386718      9388.0728      10.147907      4.8365906      35.732766    
      6780   300.15638     -127015.8      -125993.15      2897.3159      245.32774      1820.028       2.343657       9368.1035      10.221872      4.906393       37.54958     
      6800   297.11747     -127008.98     -125996.68     -4190.6145      203.39735      1796.0988      2.3407904      9379.5759      10.335833      5.1082079      39.982825    
      6820   300.69313     -127021.84     -125997.36     -3879.386       178.79543      1783.8237      2.335364       9401.3701      10.333422      5.1598591      41.585976    
      6840   301.23648     -127025.07     -125998.74      6971.6196      209.15615      1850.2885      2.3347116      9403.9973      10.170968      5.0092422      41.314409    
      6860   304.14316     -127039.01     -126002.77      561.92817      189.58353      1786.8262      2.3328027      9411.6924      10.027494      4.9077757      39.282323    
      6880   300.60418     -127032.68     -126008.5      -7861.9332      177.81503      1789.3296      2.3320831      9414.5966      10.08544       5.0171566      36.629551    
      6900   293.91706     -127020.21     -126018.82      8109.7978      273.04792      1863.412       2.3361564      9398.1815      10.246929      5.1838871      34.74934     
      6920   294.40629     -127034.03     -126030.97     -7045.0958      231.53076      1831.666       2.3353653      9401.3652      10.25766       5.1422799      34.113298    
      6940   292.60578     -127042.75     -126045.82     -421.0949       199.23196      1833.8826      2.3350413      9402.6694      10.053925      4.8702269      34.449963    
      6960   295.70525     -127065.35     -126057.86      12427.902      222.17841      1845.8467      2.333118       9410.4206      9.8343736      4.6328841      35.424181    
      6980   294.61942     -127070.51     -126066.73     -13793.306      210.50858      1717.5566      2.3256709      9440.5539      9.8162719      4.61762        36.811862    
      7000   291.20441     -127066.91     -126074.76      7632.2984      247.71915      1817.0607      2.3298551      9423.5998      9.9294811      4.7562671      38.085544    
      7020   295.52399     -127087.29     -126080.42      4714.449       238.37969      1790.176       2.3319255      9415.2329      9.988676       4.8131803      38.472916    
      7040   289.42591     -127068.49     -126082.39     -15748.091      199.04976      1757.0902      2.3302306      9422.0812      9.9566232      4.749358       37.794945    
      7060   286.82636     -127059.92     -126082.68      13970.684      271.60132      1882.9337      2.3351414      9402.2663      9.9417789      4.7468655      36.402511    
      7080   282.36066     -127042.96     -126080.94      2324.5215      380.36243      1856.9922      2.3344688      9404.9755      10.097812      4.9279148      34.936505    
      7100   287.57771     -127051.37     -126071.57     -13396.993      233.12221      1746.565       2.3340769      9406.5547      10.368185      5.1393909      33.991523    
      7120   297.15433     -127073.26     -126060.84      15830.229      324.488        1901.4557      2.3406485      9380.1446      10.547958      5.1284371      33.60533     
      7140   290.19062     -127038.99     -126050.29     -6288.8033      399.60925      1820.2143      2.3383267      9389.4583      10.595766      4.9982159      33.605436    
      7160   294.21603     -127040.17     -126037.75     -10344.271      178.61611      1708.1895      2.3365588      9396.5626      10.565695      4.9710467      34.211203    
      7180   294.0275      -127025.65     -126023.88      15279.128      292.62918      1953.3538      2.3362797      9397.6854      10.556186      5.1059815      35.696005    
      7200   299.17289     -127032.63     -126013.33     -12785.174      203.33445      1802.8731      2.3330944      9410.5158      10.605868      5.3345883      37.690904    
      7220   309.60773     -127064.82     -126009.97      2960.4617      237.50637      1742.0656      2.3394637      9384.8951      10.614922      5.3998782      39.102657    
      7240   297.24318     -127020.61     -126007.88      2479.9311      285.21385      1863.6003      2.342188       9373.9793      10.567572      5.2519558      38.95498     
      7260   288.34194     -126986.45     -126004.05     -7528.5136      247.46025      1885.1716      2.3411988      9377.9399      10.490325      5.1023122      37.175629    
      7280   292.21688     -126993.06     -125997.46      12564.476      209.33049      1831.6489      2.344369       9365.2584      10.424059      5.0438109      34.618225    
      7300   301.07714     -127018.49     -125992.7      -13529.388      200.0967       1751.3147      2.3410771      9378.4275      10.420218      5.0460571      32.498728    
      7320   308.21346     -127037.44     -125987.33      11617.674      263.18903      1879.93        2.3447975      9363.5468      10.406244      4.9645555      31.711878    
      7340   299.61261     -127005.68     -125984.88     -6577.4487      269.20744      1830.0167      2.343869       9367.2563      10.361116      4.7192787      32.149499    
      7360   297.79384     -126997.64     -125983.04     -2262.4364      230.97768      1827.4081      2.3454606      9360.8998      10.293735      4.4904416      33.14912     
      7380   298.47884     -126996.5      -125979.56      9437.6281      175.43153      1828.1908      2.3472417      9353.7966      10.231029      4.3989531      34.052783    
      7400   300.67912     -126997.97     -125973.54     -9702.704       272.86888      1840.7386      2.342906       9371.1064      10.253931      4.4327027      34.462623    
      7420   300.47127     -126994.25     -125970.52      4422.3903      255.4954       1920.0008      2.3439356      9366.9899      10.341188      4.4250104      34.113498    
      7440   296.30267     -126974.4      -125964.87      1740.4381      312.56116      1872.3079      2.3459952      9358.7666      10.431005      4.2682776      33.16826     
      7460   301.85826     -126987.76     -125959.31     -7180.8329      242.52754      1895.7704      2.3456982      9359.9518      10.492102      4.1136624      32.253158    
      7480   314.09688     -127024.43     -125954.28      6750.0497      257.91788      1869.1561      2.3466306      9356.2327      10.47917       4.0446277      31.862056    
      7500   319.10361     -127039.78     -125952.57     -1767.9481      195.87996      1797.7761      2.3428973      9371.1411      10.438165      4.058042       32.030097    
      7520   320.4778      -127048.28     -125956.39      887.70374      341.36831      1878.2365      2.337971       9390.8869      10.35212       4.0722325      32.238341    
      7540   300.89278     -126991.24     -125966.08     -369.2678       238.27417      1845.376       2.3361769      9398.0987      10.179142      4.0575033      31.983226    
      7560   288.14855     -126959        -125977.26     -2904.0627      215.49043      1904.6534      2.334396       9405.2687      10.005833      4.1454254      31.081001    
      7580   293.44335     -126989.3      -125989.52      3404.8564      225.92939      1797.6612      2.3335423      9408.7093      9.9019435      4.304813       30.148027    
      7600   295.54411     -127007.82     -126000.88     -3354.934       280.93052      1837.6804      2.3332728      9409.7963      9.8803777      4.4248825      30.295188    
      7620   302.72888     -127043.74     -126012.32      2834.1722      222.81966      1776.8092      2.3372877      9393.6325      9.9138554      4.4308126      31.707063    
      7640   294.26315     -127026.01     -126023.43     -2540.494       308.56558      1842.4656      2.3370755      9394.4853      9.9684348      4.3401076      33.67063     
      7660   288.93992     -127017.58     -126033.14      646.18617      222.96398      1797.7176      2.3374058      9393.1578      10.000684      4.3284732      35.043953    
      7680   286.77573     -127015.24     -126038.18      1924.9134      226.58076      1791.7813      2.3372908      9393.6201      9.9898922      4.3768092      35.020482    
      7700   287.71161     -127017.94     -126037.69     -3046.7727      215.96824      1757.975       2.3341543      9406.2424      9.9930277      4.4436367      33.706028    
      7720   294.59799     -127039.87     -126036.16      1702.4247      187.90589      1800.4762      2.3326603      9412.2668      10.03821       4.4842113      31.766781    
      7740   286.36454     -127008.14     -126032.48      1829.7792      303.84315      1925.6032      2.3320053      9414.9105      10.091856      4.4362394      30.214851    
      7760   290.59648     -127015.61     -126025.52     -4933.7825      203.30374      1770.2108      2.3306177      9420.516       10.134079      4.3632673      29.764102    
      7780   294.55998     -127020.79     -126017.21      5773.2545      198.20152      1781.7174      2.3331969      9410.1025      10.09783       4.2561627      30.339168    
      7800   302.06228     -127039.34     -126010.2      -5441.4187      225.83819      1806.6768      2.3324949      9412.9342      10.014488      4.0833371      31.698306    
      7820   311.20762     -127065.25     -126004.94      7461.0731      224.4638       1809.9542      2.336069       9398.5329      9.9208957      3.8832539      33.233923    
      7840   299.06599     -127022.42     -126003.49     -4118.7049      264.53538      1881.5445      2.3356975      9400.0279      9.8237452      3.7568186      34.181098    
      7860   294.94123     -127006.63     -126001.75     -7874.8916      317.53621      1896.0041      2.3356182      9400.3471      9.7139785      3.7264667      33.937516    
      7880   294.12701     -127002.68     -126000.57      10832.835      226.55294      1914.7326      2.3349693      9402.9594      9.5890369      3.7023152      32.506238    
      7900   299.48739     -127019.27     -125998.9       9248.7501      243.455        1811.9072      2.3323317      9413.5929      9.489885       3.6499203      30.702314    
      7920   301.78456     -127025.05     -125996.85     -5703.7153      390.14339      1865.6527      2.3297305      9424.1037      9.472165       3.5391621      29.617887    
      7940   297.83352     -127009.38     -125994.64     -14272.205      179.25814      1804.2872      2.3311998      9418.1636      9.5691715      3.3970547      29.817271    
      7960   304.04901     -127029.37     -125993.45     -11010.223      165.37577      1767.4161      2.338373       9389.2728      9.7525281      3.3332653      31.11145     
      7980   301.59472     -127020.53     -125992.98     -7883.2644      270.12138      1798.8716      2.3405171      9380.6713      9.9013164      3.3240998      32.740701    
      8000   300.22435     -127016.26     -125993.38      7580.0382      205.43195      1847.7911      2.3415558      9376.51        9.9342316      3.3305992      34.087253    
      8020   295.94065     -127001.9      -125993.61      14756.995      222.3823       1838.8142      2.3417451      9375.7522      9.9075439      3.3839172      34.933802    
      8040   295.7413      -127000.09     -125992.48      14104.589      321.18311      1852.28        2.3408172      9379.4688      9.9311379      3.5317942      34.975741    
      8060   305.05362     -127029.08     -125989.74     -7349.875       234.29243      1762.2085      2.3391376      9386.2033      10.052421      3.7774604      33.969125    
      8080   303.08111     -127019.5      -125986.88     -15366.209      179.56438      1798.2829      2.3395464      9384.5635      10.164305      4.0284545      31.856258    
      8100   305.56273     -127029.41     -125988.34     -497.06337      186.64892      1767.3402      2.3439392      9366.9757      10.14706       4.1513061      29.440186    
      8120   303.93551     -127025.23     -125989.7       15696.366      299.39625      1903.8816      2.3443717      9365.2478      10.064147      4.1703412      27.964652    
      8140   303.76825     -127026.63     -125991.67     -14734.735      179.68109      1778.3525      2.3390909      9386.3908      10.027116      4.1893796      28.168131    
      8160   298.53522     -127016.08     -125998.95      11521.809      227.23225      1920.438       2.34326        9369.6909      10.047806      4.2945733      29.928746    
      8180   299.69532     -127027.47     -126006.38     -4860.4876      212.59895      1850.3224      2.3418416      9375.3659      10.081639      4.3833458      32.343369    
      8200   304.79044     -127055.32     -126016.88     -5321.8241      168.86926      1736.9566      2.3417595      9375.6944      10.010737      4.3674768      34.562122    
      8220   299.45131     -127052.03     -126031.78      5531.1535      226.83189      1806.8319      2.3422138      9373.8759      9.8916856      4.363795       36.121592    
      8240   291.85699     -127040.97     -126046.6      -6114.3502      276.47908      1837.3435      2.3407536      9379.7234      9.8761914      4.4610572      36.857657    
      8260   287.30326     -127038.51     -126059.65      6943.1672      190.09028      1819.3632      2.3410978      9378.3443      9.9527707      4.6443047      36.813009    
      8280   285.69727     -127038.57     -126065.18     -6205.3043      311.66048      1823.0243      2.3395542      9384.5323      10.005021      4.7561355      35.971588    
      8300   287.57214     -127049.9      -126070.12      5555.7549      253.35611      1827.1939      2.3407102      9379.8973      9.9439911      4.7421746      34.642589    
      8320   286.17279     -127044.14     -126069.13     -5258.6876      359.96409      1859.6887      2.3358318      9399.4872      9.8139905      4.6589997      33.315067    
      8340   286.3499      -127040.29     -126064.68      3158.0114      250.46721      1814.6592      2.3333345      9409.5474      9.7261892      4.6056745      32.374553    
      8360   287.1512      -127036.15     -126057.81     -2559.5571      227.40923      1838.0205      2.3305487      9420.7949      9.6889309      4.6167449      32.120484    
      8380   292.29508     -127044.32     -126048.45      3465.53        311.50836      1875.284       2.3332023      9410.0803      9.6424062      4.5791096      32.703184    
      8400   300.87302     -127063.1      -126038        -2463.1367      167.6467       1823.6317      2.3351777      9402.1203      9.6354361      4.5017131      33.887208    
      8420   309.12921     -127083.08     -126029.86      1133.1812      198.93751      1800.4717      2.3372283      9393.8712      9.6807763      4.4229748      35.440456    
      8440   306.5823      -127067.62     -126023.07      1264.5191      291.12712      1849.1211      2.3373571      9393.3536      9.7307551      4.3267914      36.895214    
      8460   301.27764     -127046.94     -126020.46     -3185.7414      170.7039       1714.9974      2.334535       9404.7088      9.7188563      4.2828795      37.406854    
      8480   294.57655     -127022.77     -126019.13      4111.4678      257.64485      1717.1638      2.3349728      9402.9452      9.6108901      4.2244951      36.597007    
      8500   291.80449     -127010.58     -126016.38      1005.9909      213.01292      1861.3865      2.3324303      9413.1953      9.5180256      4.1114207      34.729395    
[...]
     37940   307.39399     -127001.65     -125954.34     -12537.843      241.43498      1840.9463      2.3365587      9396.5634      9.7007097      4.9677769      34.944785    
     37960   314.19279     -127028.43     -125957.96     -16112.523      168.31079      1687.6587      2.3359687      9398.9367      9.6930267      4.8677619      33.609889    
     37980   311.31343     -127028.25     -125967.58      12310.479      219.85365      1845.0867      2.3415785      9376.4192      9.6701554      4.8626008      31.547495    
     38000   302.55886     -127006.75     -125975.91      9969.4424      187.87339      1846.3984      2.3414132      9377.0813      9.7114071      4.9865243      29.422329    
     38020   300.97161     -127009.05     -125983.62     -14200.679      196.05768      1762.5543      2.3359481      9399.0195      9.8216993      5.1488084      28.498037    
     38040   293.16286     -126991.62     -125992.79      4357.5013      221.03479      1884.4568      2.3367936      9395.6188      9.9091352      5.2123628      29.587813    
     38060   299.65042     -127021.49     -126000.56      4895.8447      193.10972      1827.7807      2.339849       9383.3498      9.9388887      5.1489493      31.967003    
     38080   305.16841     -127046.69     -126006.97     -9716.7628      193.30964      1794.6555      2.3389591      9386.92        9.9625918      5.1396969      34.262819    
     38100   297.51028     -127028.96     -126015.32      7601.6145      172.4304       1786.7326      2.3394031      9385.1382      10.009051      5.2144489      35.870407    
     38120   292.44512     -127018.7      -126022.32      588.23713      207.56389      1766.8609      2.3367468      9395.8068      10.021535      5.2834605      36.864978    
     38140   289.49889     -127013.7      -126027.36     -3972.8715      220.76747      1805.5747      2.3340267      9406.7569      9.89851        5.2408157      37.304312    
     38160   291.47499     -127022.06     -126028.99      6031.9239      306.17931      1861.0845      2.3375805      9392.4557      9.721681       5.1128026      36.836083    
     38180   287.17599     -127006.6      -126028.17     -5167.4419      172.92651      1867.9219      2.3354727      9400.9325      9.6650276      5.0492728      35.217119    
     38200   292.37165     -127017.83     -126021.7      -3376.2671      196.77846      1753.2188      2.3318131      9415.6868      9.70356        5.0935044      32.879258    
     38220   305.20362     -127055.66     -126015.81      6706.0897      325.22032      1775.1678      2.3316291      9416.4299      9.7104248      5.1651334      31.253681    
     38240   309.18433     -127064.88     -126011.47     -3538.4528      176.2499       1754.4225      2.3311597      9418.3259      9.6120032      5.140873       31.598493    
     38260   309.29676     -127060.77     -126006.97     -5622.505       169.86339      1786.4151      2.3305742      9420.6918      9.5245225      5.0024722      33.96464     
     38280   302.1391      -127034.22     -126004.81      5783.471       245.1632       1817.3487      2.3329848      9410.9577      9.5477011      4.8547254      37.359089    
     38300   294.03891     -127003.75     -126001.94      4318.1939      240.00686      1811.4384      2.3324251      9413.2162      9.6309136      4.7455913      40.689251    
     38320   301.03847     -127022.55     -125996.89     -5310.5607      196.49618      1792.9757      2.3308903      9419.4145      9.6925717      4.6945173      43.078787    
     38340   305.39282     -127031.46     -125990.97     -7679.9999      227.44667      1770.1097      2.3334098      9409.2436      9.6753162      4.6317749      43.808187    
     38360   302.16656     -127016.88     -125987.38     -2452.7496      266.32349      1838.4561      2.3354296      9401.1063      9.697105       4.5044623      42.344666    
     38380   304.11391     -127017.58     -125981.44      5736.3845      201.84527      1811.7509      2.3360046      9398.7921      9.8559198      4.3728562      38.800089    
     38400   297.18504     -126986.94     -125974.41      7032.8477      236.1145       1807.5944      2.3333832      9409.3509      10.029046      4.3361494      34.384747    
     38420   298.1438      -126978.4      -125962.61      10833.368      253.8823       1966.6955      2.3326752      9412.2067      10.049172      4.3168491      30.928228    
     38440   303.48159     -126986.87     -125952.89      7277.1466      290.17603      1893.904       2.3374459      9392.9966      9.8954411      4.1270866      29.910513    
     38460   310.5137      -127000.26     -125942.32      1500.2776      175.43426      1850.221       2.3391952      9385.9722      9.7961824      3.7965191      31.420525    
     38480   318.31593     -127013.87     -125929.34     -15542.309      258.3947       1898.1769      2.3361556      9398.1847      9.9151984      3.6027978      34.040936    
     38500   316.04514     -127002.56     -125925.78     -4852.0483      194.80693      1855.5316      2.3413527      9377.3234      10.037154      3.6387089      36.249914    
     38520   313.45859     -126991.69     -125923.71      18817.489      280.48592      1962.6533      2.3485119      9348.7375      10.027029      3.8044298      37.430694    
     38540   305.27927     -126970.17     -125930.06      3083.2654      202.39963      1962.2843      2.3467406      9355.794       9.9392265      3.9523991      37.733549    
     38560   305.24381     -126973.63     -125933.65     -20357.231      262.62993      1891.1047      2.3400566      9382.5175      9.942359       3.9975397      37.413109    
     38580   312.40086     -127006.51     -125942.14      20109.398      388.77981      1950.9712      2.3417914      9375.5667      10.050299      4.0971743      36.121417    
     38600   298.62111     -126966.99     -125949.57     -18248.086      212.63899      1945.5744      2.3392392      9385.7959      10.135825      4.3426651      33.68118     
     38620   297.37668     -126977.3      -125964.12      6240.8595      201.98168      1887.5141      2.3480139      9350.7206      10.131755      4.5223559      30.775668    
     38640   299.66162     -126997.55     -125976.58      8384.8735      395.87448      1903.1449      2.3466045      9356.3366      10.088356      4.4878842      28.951123    
     38660   293.43897     -126983.7      -125983.93     -9770.2033      359.52236      1973.7133      2.3404761      9380.8357      10.059011      4.2928166      29.098836    
     38680   297.31719     -127002.42     -125989.44      10612.099      222.0435       1927.4363      2.3403364      9381.3957      10.071621      4.1450623      30.652839    
     38700   293.28963     -126993.83     -125994.57     -8559.7849      215.93985      1819.1847      2.339322       9385.4635      10.084154      4.1636754      32.820196    
     38720   295.16561     -127003.75     -125998.1       17.510458      316.68962      1878.4174      2.3408163      9379.4723      10.118156      4.3086109      34.968147    
     38740   298.88349     -127016.15     -125997.83      6581.0746      217.28064      1756.2365      2.3392744      9385.6547      10.10889       4.3097779      36.718786    
     38760   294.78041     -127002.89     -125998.55     -3341.8754      302.80842      1931.1318      2.331967       9415.0654      9.9897014      4.1279035      37.683839    
     38780   299.25076     -127016.8      -125997.24      959.93663      275.32388      1941.3965      2.3312157      9418.0997      9.8210625      3.9395469      37.220289    
     38800   291.93542     -126991.52     -125996.88      4300.3674      275.55624      1882.7419      2.334007       9406.8363      9.7229005      3.8738769      35.279141    
     38820   296.3267      -127002        -125992.39     -2474.1114      318.71738      1857.9497      2.3332856      9409.7445      9.7487092      3.8909675      32.776137    
     38840   299.94292     -127010.45     -125988.52     -4747.0452      250.22272      1823.4299      2.3295237      9424.9402      9.7192563      3.738826       31.334271    
     38860   294.55152     -126988.53     -125984.97      1007.7333      290.18673      1963.6532      2.3294371      9425.2906      9.5404887      3.4373158      31.832585    
     38880   306.2138      -127027.38     -125984.09      4324.7968      275.05664      1842.8255      2.3329951      9410.9164      9.4083179      3.2302945      33.629564    
     38900   299.64784     -127005.41     -125984.49      5386.5839      263.08315      1828.2153      2.3338508      9407.4659      9.5137463      3.2408919      35.326198    
     38920   297.51135     -126996.12     -125982.48      3516.1599      331.50417      1865.0551      2.331973       9415.0412      9.7888762      3.4312366      36.175306    
     38940   299.26188     -127000.06     -125980.45     -1334.5733      197.529        1838.8046      2.3280532      9430.8933      9.9164057      3.4649651      36.266468    
     38960   304.51661     -127015.61     -125978.1      -7814.6162      273.46664      1872.7409      2.3274227      9433.4482      9.7905088      3.2257091      35.747081    
     38980   314.65601     -127049.2      -125977.14      1097.6864      179.0057       1810.6795      2.332615       9412.4496      9.683811       3.0640913      34.447155    
     39000   303.32642     -127014.9      -125981.45      8639.698       227.37887      1915.7079      2.3355554      9400.5996      9.791698       3.1682632      32.515857    
     39020   299.93604     -127008.86     -125986.96      5968.7092      321.42429      1929.1582      2.3338705      9407.3862      9.969713       3.341111       30.741502    
     39040   302.81519     -127023.01     -125991.3      -13301.257      189.49484      1790.1595      2.3319916      9414.966       9.910544       3.3555019      29.944021    
     39060   295.1539      -127003.83     -125998.22      10695.796      315.3652       1921.1689      2.3399186      9383.0707      9.6372478      3.2329595      30.726032    
     39080   297.31528     -127019.09     -126006.11      11957.502      370.64915      1954.0233      2.3416061      9376.3086      9.5609019      3.20622        32.756051    
     39100   289.88796     -127003.07     -126015.4      -11248.063      221.7634       1888.9716      2.3370769      9394.4795      9.7892293      3.4573657      34.785919    
     39120   292.79152     -127024.05     -126026.49     -2794.1603      277.98767      1875.3355      2.3401412      9382.1782      10.041093      3.8312113      35.954793    
     39140   295.61565     -127043.59     -126036.41      17421.356      264.93411      1953.4378      2.345353       9361.3293      10.058722      4.0000715      36.500808    
     39160   286.96446     -127026.52     -126048.82     -12498.463      206.25752      1871.5168      2.3429648      9370.8713      9.843013       3.8581896      36.962808    
     39180   295.04118     -127065.76     -126060.54     -11791.474      214.04768      1787.7531      2.3407495      9379.74        9.7173608      3.7515043      37.076379    
     39200   288.07654     -127053.79     -126072.3       17214.438      221.77439      1934.4262      2.3421111      9374.2869      9.8200206      3.9454128      36.34111     
     39220   284.62001     -127052.02     -126082.3      -6785.248       228.21022      1789.7851      2.340016       9382.68        9.946388       4.2219625      34.778083    
     39240   291.42115     -127079.28     -126086.39     -12086.629      171.29366      1780.7913      2.3401276      9382.2328      9.9157609      4.2629622      33.063093    
     39260   292.60131     -127087.72     -126090.8       12181.694      267.51787      1831.2147      2.3427654      9371.6689      9.7705436      4.0214867      32.1984      
     39280   292.93302     -127090.61     -126092.57      1401.3596      373.01935      1903.6574      2.3400856      9382.4009      9.7354998      3.82729        32.307982    
     39300   285.08441     -127062.66     -126091.35     -11481.449      195.52663      1829.4174      2.3382402      9389.8059      9.8515625      3.941403       32.632871    
     39320   283.60509     -127051.38     -126085.12      6920.8353      290.38375      1869.8458      2.3402566      9381.7156      9.9513661      4.1394132      32.358076    
     39340   292.64631     -127069.3      -126072.23      10586.666      263.93368      1894.9607      2.3377308      9391.8519      9.8599537      4.0960685      31.485012    
     39360   294.56952     -127060.23     -126056.62     -11915.343      258.58076      1811.2666      2.331921       9415.2509      9.5955107      3.7766734      30.55575     
     39380   298.6778      -127057.94     -126040.32     -5812.2804      187.99492      1773.05        2.33462        9404.3664      9.41652        3.5437537      29.935288    
     39400   299.2238      -127044.15     -126024.68      4085.2857      265.34697      1797.9808      2.3352826      9401.6979      9.5104952      3.6603262      29.787942    
     39420   298.23172     -127030.41     -126014.31      10948.343      188.67287      1835.3816      2.3337316      9407.9463      9.7218326      3.9246021      30.107077    
     39440   300.64387     -127032.76     -126008.44     -5455.4847      254.37435      1900.5739      2.3307521      9419.973       9.7838833      3.9876624      30.761414    
     39460   301.31054     -127030.3      -126003.72     -6783.2697      172.04853      1754.7806      2.3327682      9411.8317      9.6337165      3.8078093      31.64951     
     39480   306.1081      -127044.54     -126001.61     -350.22114      138.39034      1701.7956      2.3354756      9400.9211      9.5385012      3.6199363      32.699447    
     39500   304.18304     -127036.93     -126000.56      6476.7794      318.72363      1858.4175      2.3351549      9402.2122      9.6381668      3.6544506      33.28427     
     39520   297.12426     -127012.05     -125999.73     -2146.9144      276.93064      1885.9049      2.333114       9410.4369      9.7584272      3.8520503      33.11131     
     39540   303.74476     -127035.71     -126000.83     -2671.6749      199.26064      1820.0117      2.3338476      9407.4788      9.6813527      3.9130298      32.64493     
     39560   299.32837     -127022.15     -126002.31      3321.125       330.11778      1913.7064      2.3365577      9396.5672      9.4733022      3.8359511      32.475026    
     39580   296.10195     -127011.92     -126003.08      301.15729      259.44595      1889.9484      2.3338785      9407.354       9.4413197      3.9008725      32.840198    
     39600   296.25414     -127010.52     -126001.16     -1715.3658      236.75042      1934.9354      2.3338215      9407.584       9.6421883      4.2407788      33.262342    
     39620   292.92788     -126998.18     -126000.15      1768.3224      231.28628      1868.7769      2.33685        9395.3919      9.871801       4.6756086      33.167187    
     39640   298.06602     -127013.09     -125997.56     -750.90485      255.64701      1908.148       2.3373603      9393.3408      9.9288573      4.915936       32.488065    
     39660   299.68652     -127014.26     -125993.21     -708.25848      250.66705      1898.2864      2.3378993      9391.1751      9.7822221      4.8971697      31.808243    
     39680   298.60916     -127005.98     -125988.6      -335.53696      174.35828      1872.1048      2.3384478      9388.9723      9.6501921      4.8725439      31.887984    
     39700   304.49216     -127019.66     -125982.24      2387.7549      173.84436      1786.7096      2.3391533      9386.1407      9.7039963      5.0144253      32.591259    
     39720   302.49213     -127005.65     -125975.04     -3021.4531      211.34091      1800.7131      2.3380674      9390.4997      9.8386509      5.2584081      33.2837      
     39740   307.08142     -127015.59     -125969.35      1907.9339      323.42088      1933.2965      2.3394561      9384.9256      9.8458488      5.4033163      33.41779     
     39760   306.0513      -127008.1      -125965.36      1529.0421      233.46754      1869.52        2.3393822      9385.2223      9.7191096      5.3050427      32.968312    
     39780   306.79559     -127005.98     -125960.7      -4100.3881      210.55962      1791.1662      2.337112       9394.3386      9.6351294      5.0684504      32.430279    
     39800   309.44877     -127011.59     -125957.28      3384.6286      303.30233      1899.105       2.3399632      9382.8917      9.6781292      4.8998183      32.145286    
     39820   309.99375     -127012.61     -125956.44      5258.1527      172.75415      1769.347       2.3412912      9377.5697      9.7767547      4.7759911      32.28834     
     39840   308.38074     -127007.97     -125957.29     -4637.8306      245.46639      1830.0085      2.3357016      9400.0115      9.7815955      4.5241273      32.772705    
     39860   302.05688     -126992.6      -125963.47     -7013.741       207.91918      1794.4705      2.3340837      9406.5272      9.5871776      4.1860969      33.395321    
     39880   299.6101      -126992.02     -125971.23     -1174.0027      176.43954      1738.4581      2.3333009      9409.6827      9.3629172      3.9543507      33.891705    
     39900   302.12196     -127010.51     -125981.16      11617.363      195.19909      1789.9284      2.3333969      9409.2956      9.2881155      3.946402       33.895919    
     39920   300.82136     -127017.81     -125992.89      12333.976      302.79942      1879.0239      2.3336423      9408.3061      9.3443167      4.1021676      33.288689    
     39940   302.02828     -127036.12     -126007.09      450.04041      297.50101      1824.4125      2.3324104      9413.2756      9.3775521      4.2056709      32.333277    
     39960   301.13303     -127046.44     -126020.46     -10790.66       181.13119      1671.5521      2.3310632      9418.7156      9.2820932      4.1191922      31.723705    
     39980   291.4825      -127025.87     -126032.77     -14234.846      211.62036      1762.0865      2.3296133      9424.5779      9.1808274      4.0064881      31.842066    
     40000   290.48963     -127030.47     -126040.75     -3533.9498      248.22812      1838.1431      2.3306482      9420.393       9.2256701      4.0909544      32.460287    
Loop time of 1425.24 on 32 procs for 40000 steps with 1144 atoms

Performance: 0.242 ns/day, 98.975 hours/ns, 28.065 timesteps/s, 32.107 katom-step/s
99.0% CPU use with 32 MPI tasks x 1 OpenMP threads

MPI task timing breakdown:
Section |  min time  |  avg time  |  max time  |%varavg| %total
---------------------------------------------------------------
Pair    | 1128.7     | 1166.9     | 1187.3     |  34.0 | 81.87
Neigh   | 81.186     | 83.991     | 87.597     |  15.2 |  5.89
Comm    | 13.009     | 29.827     | 67.318     | 188.6 |  2.09
Output  | 1.1219     | 1.3319     | 1.4872     |   8.8 |  0.09
Modify  | 134.02     | 142.15     | 149.15     |  36.8 |  9.97
Other   |            | 1.067      |            |       |  0.07

Nlocal:          35.75 ave          38 max          32 min
Histogram: 1 1 0 1 0 2 25 0 1 1
Nghost:           3400 ave        3498 max        3315 min
Histogram: 3 4 3 3 4 8 0 2 1 4
Neighs:        30666.4 ave       32857 max       26624 min
Histogram: 1 1 0 0 2 2 14 10 1 1

Total # of neighbors = 981324
Ave neighs/atom = 857.8007
Neighbor list builds = 4000
Dangerous builds not checked
unfix           npt


write_data npt.lammps
System init for write_data ...

# isotropic volume relaxation to hydrostatic target

#fix             3 all box/relax  vmax 1.0e-3
#variable        emin equal pe+f_3/atoms
#thermo_style    custom step temp pe pxx pyy pzz f_3 v_emin  cella cellb cellc cellalpha cellbeta cellgamma
#minimize    1.0e-6 0.001 1000 10000

write_data final.lammps
System init for write_data ...
Total wall time: 0:23:45
