LAMMPS (2 Aug 2023 - Development - patch_2Aug2023-289-gafabb279a3)
  using 1 OpenMP thread(s) per MPI task
# REAX potential for
# .....

boundary        p p p
units           real

atom_style      charge
read_data       ./lmp.data
Reading data file ...
  orthogonal box = (0 0 0) to (4.450643 8.155121 261.35507)
  1 by 1 by 32 MPI processor grid
  reading atoms ...
  1144 atoms
  read_data CPU = 0.099 seconds
#read_data       ./final.lammps
replicate       1 1 1
Replication is creating a 1x1x1 = 1 times larger system...
  orthogonal box = (0 0 0) to (4.450643 8.155121 261.35507)
  1 by 1 by 32 MPI processor grid
  1144 atoms
  replicate CPU = 0.002 seconds

#change_box all triclinic
pair_style      reax/c NULL
pair_coeff      * * ../../../ForceFiledFiles/ffield.reax.FC C F H
Reading potential file ../../../ForceFiledFiles/ffield.reax.FC with DATE: 2013-06-28
WARNING: Changed valency_val to valency_boc for X (src/REAXFF/reaxff_ffield.cpp:296)
neighbor        2. bin
neigh_modify    every 10 delay 0 check no
fix             q all qeq/reax 1 0.0 10.0 1e-6 reax/c

variable        dt_MD equal 0.1
variable        dt_MIN equal 10*v_dt_MD
timestep        ${dt_MD}
timestep        0.1
thermo_style    custom step temp epair etotal press fmax fnorm density
thermo          20
write_data      init.lmpdata
System init for write_data ...
Neighbor list info ...
  update: every = 10 steps, delay = 0 steps, check = no
  max neighbors/atom: 2000, page size: 100000
  master list distance cutoff = 12
  ghost atom cutoff = 12
  binsize = 6, bins = 1 2 44
  2 neighbor lists, perpetual/occasional/extra = 2 0 0
  (1) pair reax/c, perpetual
      attributes: half, newton off, ghost
      pair build: half/bin/newtoff/ghost
      stencil: full/ghost/bin/3d
      bin: standard
  (2) fix qeq/reax, perpetual, copy from (1)
      attributes: half, newton off
      pair build: copy
      stencil: none
      bin: none
variable        Tdamp equal 100*dt
variable        Pdamp equal 100*dt
compute         Mu all property/atom xu yu zu
variable        qx atom q*c_Mu[1]
variable        qy atom q*c_Mu[2]
variable        qz atom q*c_Mu[3]
compute         Mx all reduce sum v_qx
compute         My all reduce sum v_qy
compute         Mz all reduce sum v_qz
thermo_style    custom step temp epair etotal press fmax fnorm density vol c_Mx c_My c_Mz
dump            dcd all dcd 200 dump.dcd
dump_modify     dcd unwrap yes
dump            qxyz all custom 20 dump.qxyz.txt id q xu yu zu
dump_modify     qxyz sort id
dump            xyz_form all xyz 100 dump.xyz
dump_modify     xyz_form sort id

variable        T0 equal 300
variable        T1 equal 300
timestep        ${dt_MD}
timestep        0.1
#fix             npt all npt temp ${T0} ${T1} ${Tdamp}  aniso 0 0 ${Pdamp}
fix             npt all npt temp ${T0} ${T1} ${Tdamp}  iso 0 0 ${Pdamp}
fix             npt all npt temp 300 ${T1} ${Tdamp}  iso 0 0 ${Pdamp}
fix             npt all npt temp 300 300 ${Tdamp}  iso 0 0 ${Pdamp}
fix             npt all npt temp 300 300 10  iso 0 0 ${Pdamp}
fix             npt all npt temp 300 300 10  iso 0 0 10
fix             mom all momentum 1 linear 1 1 1
run             40000

CITE-CITE-CITE-CITE-CITE-CITE-CITE-CITE-CITE-CITE-CITE-CITE-CITE

Your simulation uses code contributions which should be cited:

- pair reaxff command: doi:10.1016/j.parco.2011.08.005

@Article{Aktulga12,
 author = {H. M. Aktulga and J. C. Fogarty and S. A. Pandit and A. Y. Grama},
 title = {Parallel Reactive Molecular Dynamics: {N}umerical Methods and Algorithmic Techniques},
 journal = {Parallel Computing},
 year =    2012,
 volume =  38,
 number =  {4--5},
 pages =   {245--259}
}

- fix qeq/reaxff command: doi:10.1016/j.parco.2011.08.005

@Article{Aktulga12,
 author = {H. M. Aktulga and J. C. Fogarty and S. A. Pandit and A. Y. Grama},
 title = {Parallel Reactive Molecular Dynamics: {N}umerical Methods and Algorithmic Techniques},
 journal = {Parallel Computing},
 year =    2012,
 volume =  38,
 pages =   {245--259}
}

CITE-CITE-CITE-CITE-CITE-CITE-CITE-CITE-CITE-CITE-CITE-CITE-CITE

Per MPI rank memory allocation (min/avg/max) = 56.3 | 58.29 | 60.27 Mbytes
   Step          Temp          E_pair         TotEng         Press           Fmax          Fnorm         Density         Volume          c_Mx           c_My           c_Mz     
         0   0             -126532.47     -126532.47     -2881.6281      529.92613      2367.3441      2.3145238      9486.0212      104.97473      2.1916757      35.161492    
        20   105.88125     -126888.14     -126527.4       2220.875       159.24133      1449.0116      2.315662       9481.3583      104.95413      2.1524049      35.546036    
        40   176.02152     -127106.55     -126506.83     -1258.0474      157.68688      1108.0828      2.316465       9478.0718      104.94498      2.1156454      36.365739    
        60   204.53623     -127179.75     -126482.89      434.48039      204.4344       1344.0099      2.3197556      9464.627       105.14855      2.1394046      36.407779    
        80   208.59946     -127163.94     -126453.23     -887.97091      159.17654      1428.7427      2.3244325      9445.5835      105.49088      2.2123264      35.537803    
       100   165.78274     -126990.28     -126425.44      1740.0527      324.05549      1781.4862      2.3278241      9431.8216      105.69447      2.2817994      34.520821    
       120   220.88703     -127145.62     -126393.04     -3780.2163      197.16028      1459.0568      2.3284614      9429.2402      105.74802      2.2598125      35.176761    
       140   227.43819     -127133.71     -126358.82      5487.9911      297.06999      1637.3121      2.3322705      9413.8401      105.69845      2.2356633      36.894885    
       160   233.19857     -127120.15     -126325.63     -6205.284       226.62468      1615.6025      2.3343311      9405.5302      105.93373      2.327509       37.4816      
       180   244.10754     -127121.06     -126289.37      8181.0046      273.88431      1714.6628      2.3386916      9387.9935      106.36547      2.489548       36.579149    
       200   219.28998     -127003.2      -126256.06     -4252.2882      264.72499      1807.8359      2.3384729      9388.8714      106.57804      2.6172572      35.549586    
       220   275.70323     -127159.47     -126220.13     -4575.6659      271.80161      1607.7643      2.3399839      9382.8088      106.50067      2.6564535      35.347776    
       240   254.84443     -127052.44     -126184.16      9179.6702      355.9961       1822.9477      2.3437119      9367.884       106.28264      2.7198437      35.829803    
       260   247.32391     -126993.57     -126150.92     -12291.656      292.49344      1789.7792      2.3434632      9368.8783      106.35781      2.9154973      36.450717    
       280   260.24208     -127003.93     -126117.27      10452.461      329.60479      1979.3626      2.3518723      9335.3799      106.60292      3.0796481      37.085026    
       300   244.88193     -126919.05     -126084.72     -7012.5026      591.25018      2206.4135      2.3536001      9328.5269      106.63821      3.089457       38.023265    
       320   291.43277     -127040.62     -126047.69     -1935.0452      1078.9481      2496.9725      2.3515522      9336.6507      106.49639      2.9366254      40.069145    
       340   297.08464     -127025.28     -126013.1       12411.991      313.84539      1864.4402      2.3540532      9326.7312      106.26724      2.7753177      42.751396    
       360   280.79623     -126942.42     -125985.73     -14953.768      425.54663      2000.8921      2.3521745      9334.1805      106.29433      2.7792276      46.060094    
       380   324.19526     -127062.79     -125958.23      14570.13       402.90114      1841.6575      2.3569335      9315.3336      106.54338      2.8106367      49.357845    
       400   299.89769     -126957.83     -125936.06     -13389.669      392.16781      1898.6088      2.3536586      9328.2948      106.65927      2.6949838      50.521049    
       420   331.22227     -127047.19     -125918.69      14791.397      304.58122      1899.7326      2.355923       9319.3288      106.46438      2.4323795      48.174877    
       440   317.42979     -126988.24     -125906.73     -14232.149      316.9239       1826.7411      2.3510092      9338.807       106.12543      2.2195088      43.066025    
       460   291.2339      -126894.12     -125901.87      99.93416       399.04656      1870.118       2.3516416      9336.2957      105.988        2.1983369      37.333731    
       480   295.47458     -126901.6      -125894.9       14008.439      331.85298      1828.8014      2.3507966      9339.6516      106.19741      2.2973293      32.681267    
       500   261.95218     -126778.99     -125886.5      -14876.78       428.45768      2089.6202      2.3415263      9376.6281      106.37442      2.3104093      29.688211    
       520   310.4265      -126928.37     -125870.73     -4654.9435      277.60586      1824.002       2.3389893      9386.7986      106.28979      2.1974784      29.304061    
       540   340.76603     -127015.81     -125854.8       17019.889      263.25662      1814.0787      2.3418331      9375.3998      105.99366      2.2077179      32.419558    
       560   344.19501     -127025.44     -125852.74      1515.116       226.98574      1705.8958      2.3384146      9389.1054      105.91714      2.4491905      38.566663    
       580   341.04386     -127023.31     -125861.36     -13216.833      273.3694       1761.7282      2.3331916      9410.1235      106.10219      2.7235743      44.965811    
       600   291.15582     -126872.24     -125880.25      13288.874      275.22415      1964.5385      2.3364505      9396.9985      106.10477      2.8033391      48.663636    
       620   304.11608     -126932.95     -125896.8      -20183.399      793.67661      2098.6889      2.3331616      9410.2448      105.93265      2.7294722      48.147237    
       640   299.82064     -126937.9      -125916.39      7678.2326      355.81707      1947.1634      2.3358514      9399.4087      105.63583      2.7792507      44.424613    
       660   272.42932     -126860.27     -125932.09      4615.0344      387.57064      2030.7205      2.3323887      9413.3629      105.62077      3.0712008      39.458814    
       680   282.75327     -126901.35     -125937.99     -8373.6084      412.05462      1953.2886      2.3257594      9440.1948      105.91782      3.4707817      35.156176    
       700   273.42159     -126872.08     -125940.52      7257.9851      391.72025      2028.778       2.3250159      9443.2133      106.06216      3.7219914      33.200944    
       720   307.39152     -126983.47     -125936.17     -8194.2775      400.34288      1910.3757      2.3221585      9454.8335      105.98429      3.7569639      33.3132      
       740   333.21304     -127071.11     -125935.84      9662.9865      310.35669      1779.6064      2.3258196      9439.9505      105.71812      3.8095219      35.034868    
       760   309.01946     -126994.57     -125941.72     -8987.2561      1043.0179      2609.3418      2.3218263      9456.1862      105.65031      4.0291909      38.659305    
       780   306.47228     -126997.27     -125953.1       11277.971      400.95221      2088.6237      2.3272578      9434.1166      105.82719      4.2783012      42.623743    
       800   286.4596      -126940.19     -125964.2      -10533.622      237.29136      1842.513       2.3302983      9421.8074      105.94885      4.3016082      44.949375    
       820   307.4679      -127020.04     -125972.48      4633.7186      532.5472       2068.3064      2.3344382      9405.0986      105.96933      4.1294117      43.957312    
       840   313.54268     -127049.88     -125981.61     -348.56153      400.43448      1922.8133      2.3317425      9415.972       106.03011      4.0160506      40.396699    
       860   292.83502     -126992.55     -125994.84     -4697.7704      425.90821      1981.358       2.3291286      9426.5391      106.22627      4.0922319      36.757114    
       880   304.6924      -127044.56     -126006.46      2147.3298      314.15784      1884.1826      2.3328421      9411.5336      106.50836      4.1876019      34.407867    
       900   275.11939     -126954.22     -126016.87      698.10858      295.04752      1907.5998      2.3421395      9374.1734      106.60606      4.0640925      32.630681    
       920   289.75016     -127008.9      -126021.7       8699.5351      244.63314      1845.4314      2.3498528      9343.4029      106.57552      3.7210874      30.719957    
       940   295.66109     -127030.18     -126022.84     -10140.27       408.97501      1969.1054      2.3488877      9347.242       106.52214      3.4792202      30.122285    
       960   290.24276     -127011.18     -126022.31      10122.743      311.99063      1891.1073      2.3550032      9322.9688      106.47692      3.5007277      32.319105    
       980   297.17351     -127034.35     -126021.86     -10618.107      257.65047      1753.7244      2.356121       9318.546       106.63295      3.6177179      35.552005    
      1000   263.19785     -126915.51     -126018.78      12060.216      473.38069      2373.5606      2.3617197      9296.4552      106.82541      3.6139728      37.896377    
      1020   287.27631     -126985.87     -126007.1      -18965.247      702.29324      2185.9653      2.3560899      9318.669       107.04523      3.4543653      38.23338     
      1040   308.10461     -127042.63     -125992.9       12663.44       285.06496      1786.1607      2.3560339      9318.8905      107.16661      3.4257814      35.719267    
      1060   295.6047      -126987.92     -125980.77      4195.4031      483.81937      2033.6131      2.3511535      9338.2339      107.2305       3.6523673      31.264341    
      1080   294.97625     -126968.74     -125963.73     -21474.586      323.92387      1889.6716      2.3470429      9354.5889      107.21232      3.9058381      28.021797    
      1100   283.18493     -126913.88     -125949.05      28619.639      455.10886      2132.0672      2.355132       9322.4589      106.98354      3.9523455      27.667722    
      1120   302.97361     -126966.26     -125934.01     -12392.391      257.96073      1892.3101      2.3499277      9343.105       106.73415      3.7668886      28.951565    
      1140   320.08231     -127006.6      -125916.06     -18279.255      383.25024      1916.0649      2.3474185      9353.0922      106.46742      3.5992041      30.74322     
      1160   326.42596     -127019.11     -125906.96      19933.446      263.29898      1843.7151      2.3486302      9348.2669      106.26755      3.6968896      33.165714    
      1180   329.21076     -127026.23     -125904.58     -11603.811      327.29956      1815.6195      2.339344       9385.3754      106.22788      3.925552       37.079705    
      1200   315.49301     -126985.93     -125911.03     -1687.9886      387.48773      1832.2067      2.3368827      9395.2603      106.14746      3.940028       41.208366    
      1220   327.46372     -127036.44     -125920.75      12608.24       221.98236      1689.965       2.3349609      9402.9933      106.09923      3.7105419      43.398855    
      1240   306.48776     -126980.62     -125936.39     -6346.7353      318.24281      1834.2274      2.3293015      9425.8392      106.06919      3.5185016      42.842714    
      1260   282.31045     -126914.83     -125952.98     -6119.1649      250.4178       1842.9957      2.3274082      9433.507       105.95334      3.5969136      40.244567    
      1280   280.88873     -126920.98     -125963.98      8578.1595      294.96598      1814.3338      2.3279737      9431.2156      105.76008      3.7839387      38.533642    
      1300   287.90046     -126950.06     -125969.16     -6048.2783      359.21704      1847.7395      2.3259834      9439.2857      105.58337      3.7359142      38.856964    
      1320   300.98272     -126998.71     -125973.25      5712.0064      231.29991      1871.815       2.3303547      9421.5791      105.52216      3.446437       39.498604    
      1340   309.41708     -127029.89     -125975.68     -4469.58        319.87331      1905.462       2.3323604      9413.4774      105.7228       3.2621675      38.607149    
      1360   296.357       -126990.32     -125980.62      14440.142      2789.7228      4862.8833      2.3343613      9405.4083      106.05218      3.4011045      36.613537    
      1380   305.33583     -127026.27     -125985.97     -20202.706      310.83019      1831.4626      2.328664       9428.4198      106.30854      3.6790246      36.533094    
      1400   309.64328     -127050.32     -125995.35     -6310.9643      724.45716      2217.2401      2.3306234      9420.4931      106.28022      3.7378486      39.071824    
      1420   307.28783     -127053.09     -126006.14      13567.504      293.5282       1976.7138      2.3344893      9404.8928      106.14826      3.5016269      42.218632    
      1440   300.39532     -127040.8      -126017.33     -11403.674      804.19489      2317.0067      2.3322645      9413.8645      106.17143      3.205995       42.961577    
      1460   294.97266     -127033.1      -126028.11     -6570.6357      565.51212      2033.2281      2.3323618      9413.4717      106.21515      3.116228       40.502771    
      1480   291.82824     -127031.97     -126037.7       7182.6026      401.77477      2003.49        2.3323956      9413.3351      106.06635      3.1977914      37.07886     
      1500   303.97525     -127080.78     -126045.12     -5934.8164      659.43504      2152.9372      2.3306168      9420.5198      105.8309       3.1501153      35.146162    
      1520   315.66164     -127130.23     -126054.75      4963.8301      391.89701      1778.3225      2.3350696      9402.5554      105.76966      2.9196555      34.483521    
      1540   292.96822     -127065.38     -126067.22     -8544.2165      1187.0184      2707.8169      2.3370272      9394.6796      106.05471      2.7576898      32.360545    
      1560   283.00723     -127041.76     -126077.53      5623.4301      904.42817      2398.768       2.3424195      9373.0529      106.36685      2.8377951      29.175662    
      1580   281.96256     -127043.19     -126082.53     -6337.003       285.24302      1843.756       2.3434038      9369.1156      106.36         3.0792967      27.819793    
      1600   293.30002     -127083.49     -126084.2       4099.3159      231.30442      1774.8611      2.3452036      9361.9257      106.0062       3.1141118      28.946444    
      1620   285.20109     -127053.5      -126081.8      -5468.7437      393.73362      1946.8305      2.3452073      9361.9106      105.74806      2.8449072      31.79269     
      1640   293.82044     -127080.26     -126079.19      3739.2756      246.30521      1823.6986      2.3503293      9341.5088      105.82496      2.6035685      34.219914    
      1660   291.68906     -127066.76     -126072.96     -4915.7823      280.61136      1754.4196      2.3528434      9331.5269      106.1317       2.6307549      36.854178    
      1680   269.88285     -126983.95     -126064.44      7907.9246      327.49435      1999.7044      2.3556536      9320.3948      106.33013      2.7856295      39.852283    
      1700   281.92551     -127008.78     -126048.24     -6683.4008      207.44102      1797.5828      2.354622       9324.4784      106.37051      2.7819066      43.191784    
      1720   285.77394     -127002.93     -126029.28      3259.9721      333.51015      1941.9601      2.3551068      9322.5588      106.44847      2.5218986      45.247121    
      1740   294.66266     -127011.92     -126007.98     -3691.8032      404.32125      1929.9503      2.3536403      9328.3674      106.74157      2.2978751      43.857917    
      1760   294.24338     -126993.79     -125991.28      3715.0221      384.24908      2039.9986      2.355482       9321.0739      107.00385      2.3158101      40.351321    
      1780   295.72343     -126980.34     -125972.79     -6233.8939      327.82056      1954.5731      2.3549772      9323.072       106.95467      2.5033658      36.638556    
      1800   309.52475     -127010.82     -125956.25      1433.7041      295.89889      2010.1046      2.353772       9327.8454      106.55806      2.5782676      34.774876    
      1820   336.55415     -127090.83     -125944.17      8163.7057      230.81785      1795.0535      2.3484778      9348.8735      106.14047      2.3465604      34.426183    
      1840   325.52227     -127048.49     -125939.41     -12058.948      411.18895      1997.0304      2.3377331      9391.8428      105.96782      2.1519326      34.242568    
      1860   309.30163     -126998.51     -125944.7       6156.1208      399.66058      2061.202       2.3384723      9388.8739      105.94129      2.2922853      33.788176    
      1880   302.51262     -126982.82     -125952.14      4701.0524      270.72848      1888.0598      2.3390349      9386.6157      105.91166      2.6202972      32.924165    
      1900   284.4106      -126927.86     -125958.85     -13048.298      242.8408       1817.3074      2.3349491      9403.0409      105.75216      2.7994162      32.433667    
      1920   291.96234     -126956.81     -125962.08     -4871.7846      372.38192      1970.1552      2.3324119      9413.2694      105.57527      2.6461722      32.068734    
      1940   293.59983     -126961.21     -125960.89      14096.269      315.13024      2018.4127      2.3317839      9415.8048      105.46276      2.4509114      32.364589    
      1960   299.87715     -126982.62     -125960.92     -11108.694      387.69752      1862.4796      2.3284256      9429.3851      105.45689      2.5984648      33.588675    
      1980   293.00339     -126960.15     -125961.86     -13660.161      253.37355      1903.5129      2.3274435      9433.364       105.44101      2.8853144      34.725498    
      2000   287.04624     -126936.82     -125958.84      21514.775      346.91924      2071.8636      2.33123        9418.0417      105.32302      2.9376795      34.692483    
      2020   296.89376     -126965.27     -125953.73      1327.7092      321.87108      1920.2818      2.3276455      9432.5453      105.32773      2.7614051      34.217431    
      2040   301.93396     -126969.53     -125940.83     -26878.323      396.05105      1919.3781      2.3251359      9442.7263      105.52753      2.6034291      35.866396    
      2060   318.09753     -127023.34     -125939.57      2864.3392      738.08677      2334.9902      2.3325187      9412.8382      105.87414      2.7331196      39.108222    
      2080   315.69621     -127012.99     -125937.39      16722.071      318.41503      1937.7862      2.3343223      9405.5655      106.22023      3.0216461      43.305012    
      2100   298.49198     -126954.11     -125937.13     -26175.798      427.73472      2037.5226      2.3270517      9434.9521      106.31251      3.1606588      47.262923    
      2120   308.13259     -126991.55     -125941.72      19275.056      431.46098      2078.5555      2.3357175      9399.9472      106.04573      3.1251306      48.739194    
      2140   301.11938     -126971.85     -125945.92     -17237.491      288.46371      1943.5614      2.3356653      9400.1575      105.82681      3.089241       47.432903    
      2160   308.77753     -127003.44     -125951.42      14378.026      425.47568      2042.378       2.3419662      9374.867       105.8066       3.1993304      44.093017    
      2180   302.48005     -126988.56     -125957.99     -9672.4374      266.2615       1880.9901      2.3392931      9385.5798      105.94928      3.4474742      39.236167    
      2200   292.0973      -126960.88     -125965.68      2050.7843      266.43725      2071.7872      2.3421571      9374.1029      105.98247      3.6016021      33.554632    
      2220   302.36989     -127003.96     -125973.77     -4806.1051      284.44494      1957.4133      2.3436916      9367.9651      105.90848      3.5222109      27.74529     
      2240   292.56097     -126975.16     -125978.39      7286.8135      270.34684      1889.8281      2.3451549      9362.1201      105.95619      3.4732258      24.421361    
      2260   289.44323     -126967.67     -125981.52     -8069.5903      285.4903       1897.6057      2.3411983      9377.942       106.21761      3.5809426      24.829014    
      2280   286.54827     -126959.82     -125983.53      9640.4379      413.59918      1999.5218      2.3438457      9367.3492      106.34004      3.6690158      28.886442    
      2300   297.54472     -126996.17     -125982.41     -4793.5251      274.96642      1908.3958      2.3447582      9363.7039      106.20027      3.6399071      34.570153    
      2320   307.00467     -127024.31     -125978.32     -6338.317       326.62273      1928.2332      2.3468254      9355.4557      105.92515      3.4420169      39.25785     
      2340   300.32672     -127002.49     -125979.26     -11270.63       969.16242      2292.7913      2.3479349      9351.0349      105.79142      3.2478506      41.851844    
      2360   300.25403     -127000.43     -125977.45      4423.191       474.38419      2001.0485      2.3499979      9342.8262      105.93116      3.3045804      41.642605    
      2380   297.2373      -126988.13     -125975.42      21006.263      405.54935      2053.9233      2.3530792      9330.592       106.17852      3.552877       38.940285    
      2400   304.66884     -127012.03     -125974         15201.873      410.7228       1876.9519      2.354061       9326.7002      106.42689      3.7333998      35.211921    
      2420   309.71789     -127028.9      -125973.67      2505.1124      312.5379       1970.1756      2.3494386      9345.0502      106.64645      3.7449846      30.96139     
      2440   297.9238      -126987.12     -125972.08     -11650.302      351.48748      1924.5818      2.3414264      9377.0282      106.76852      3.8282335      26.969492    
      2460   305.0453      -127012.7      -125973.39      6346.5907      715.93544      2287.8504      2.3429108      9371.0872      106.69147      4.0853802      24.777427    
      2480   306.41714     -127021.34     -125977.36      705.49269      479.96038      1983.6279      2.3455965      9360.3572      106.4726       4.3212165      26.912173    
      2500   299.3835      -127001.33     -125981.31     -8056.4184      299.45608      1943.8024      2.3463567      9357.3245      106.32238      4.3078005      32.710476    
      2520   291.86422     -126979.78     -125985.37      3191.5535      283.14406      2020.7819      2.3483733      9349.2892      106.26262      4.0584553      37.536563    
      2540   276.92468     -126930.62     -125987.12      291.69678      297.50159      1938.1965      2.3449041      9363.1211      106.24436      3.8818223      39.642457    
      2560   283.98496     -126951.08     -125983.53     -4535.4979      288.06173      1965.1762      2.3442029      9365.9221      106.2542       3.9651294      39.379396    
      2580   294.49641     -126979.63     -125976.26      5729.5905      242.1359       1953.5324      2.3438655      9367.2703      106.37221      4.1873854      36.935483    
      2600   296.68021     -126976.55     -125965.74     -5079.6368      292.3443       1979.3273      2.3376537      9392.1618      106.65703      4.3097171      33.01272     
      2620   307.12922     -127001.42     -125955.01      2930.5725      824.7306       2153.2677      2.3343259      9405.551       106.85485      4.2028281      30.046186    
      2640   304.95723     -126982.7      -125943.69      4622.102       251.22935      1934.4825      2.3318193      9415.6618      106.72056      4.0492591      29.456412    
      2660   315.42978     -127012.86     -125938.17     -5831.7844      233.88513      1889.9125      2.3305737      9420.6938      106.35571      3.9747405      30.641807    
      2680   310.69947     -126994.55     -125935.98      448.08058      279.62054      1854.7981      2.3331442      9410.3148      106.05444      3.942143       33.638256    
      2700   308.86961     -126988.99     -125936.65      6714.1191      276.81678      1945.8421      2.3350109      9402.792       106.06536      3.9376771      38.666986    
      2720   309.44089     -126992.16     -125937.87     -313.47298      213.89455      1776.6971      2.3341077      9406.4305      106.22924      3.913994       43.817025    
      2740   294.48643     -126945.47     -125942.14     -9078.3546      719.94812      2173.7774      2.3331379      9410.3401      106.32227      3.9410335      45.971845    
      2760   301.90814     -126976.57     -125947.95      7164.8602      228.09378      1878.1759      2.335974       9398.9151      106.33201      4.126756       44.687556    
      2780   286.38746     -126927.2      -125951.46      17568.458      375.18716      2035.0029      2.3353268      9401.5199      106.44397      4.3514278      41.215407    
      2800   301.08807     -126981.69     -125955.86     -1139.764       321.05644      1955.0336      2.3327338      9411.9704      106.68996      4.4277987      36.075448    
      2820   307.04102     -127003.42     -125957.31     -23028.563      188.57443      1747.6343      2.3323808      9413.395       106.7587       4.3321016      30.609539    
      2840   303.89941     -127000.98     -125965.57     -8113.4479      234.93139      1828.3517      2.3387779      9387.6472      106.5512       4.1622072      25.888483    
      2860   304.99227     -127013.37     -125974.24      10047.258      339.30267      1920.5331      2.343115       9370.2705      106.3411       4.1304982      23.165489    
      2880   295.54603     -126994.39     -125987.44      21363.777      278.6179       1951.2151      2.3440242      9366.6362      106.36732      4.2632492      23.419376    
      2900   296.47006     -127012.41     -126002.32     -8861.6066      367.59972      1913.2921      2.3417545      9375.7145      106.65679      4.3600169      25.756063    
      2920   290.7559      -127006.27     -126015.64     -15120.057      278.26988      1860.0329      2.3454026      9361.1313      106.91046      4.3138561      29.015915    
      2940   291.07106     -127020.84     -126029.14      13373.118      224.20802      1958.6795      2.3528059      9331.6756      107.00801      4.1627603      32.772126    
      2960   302.32768     -127066.36     -126036.31      640.13911      226.94238      1861.5407      2.3495672      9344.5387      107.01544      4.0230079      36.749196    
      2980   291.53254     -127034.2      -126040.93     -5192.8954      279.4254       1945.0728      2.3459121      9359.0981      106.90845      3.9335061      38.874486    
      3000   292.73107     -127040.89     -126043.54      7076.4061      281.39701      1987.6482      2.3504968      9340.8429      106.74593      3.821991       37.260029    
      3020   295.60144     -127051.33     -126044.19     -10317.317      488.22674      2046.801       2.3529056      9331.2803      106.61606      3.6306569      32.701941    
      3040   292.94474     -127042.89     -126044.81      10363.544      308.24335      2033.0733      2.356778       9315.948       106.56616      3.4071402      27.3006      
      3060   288.9577      -127025.38     -126040.88     -9352.9379      233.82757      1929.2098      2.3512795      9337.7337      106.65497      3.3445952      23.062042    
      3080   294.4959      -127040.37     -126037.01      6203.6283      333.16344      2058.0416      2.3481523      9350.1695      106.74022      3.5071423      21.459146    
      3100   300.39136     -127055.28     -126031.83     -3392.9637      301.77964      1885.5545      2.3437534      9367.7181      106.77534      3.7302452      22.864483    
      3120   309.54103     -127082.61     -126027.99     -2952.7961      307.66853      1936.7716      2.3429454      9370.9487      106.76174      3.7801498      26.559522    
      3140   315.60661     -127100.36     -126025.06      9209.8262      428.50844      2113.4387      2.3422664      9373.6652      106.70723      3.552283       30.734995    
      3160   307.12276     -127074.79     -126028.4      -8426.9437      314.63376      1743.6232      2.3390329      9386.6238      106.56125      3.2832559      34.516348    
      3180   288.17819     -127013.36     -126031.52     -677.39644      367.18251      1980.7686      2.3438222      9367.4435      106.29642      3.2031433      37.198931    
      3200   285.12712     -127004.04     -126032.59      8890.1653      391.16811      1949.3009      2.3462317      9357.8232      106.07233      3.290665       37.762924    
      3220   274.60065     -126965.26     -126029.68     -3346.3921      327.80062      2016.5407      2.3398985      9383.1511      106.01645      3.3638712      36.317285    
      3240   282.13867     -126982.01     -126020.74     -7750.1302      225.87811      1825.1788      2.3319375      9415.1844      106.11427      3.1875582      33.357299    
      3260   286.75295     -126986.59     -126009.61      2627.6514      298.42369      1923.0816      2.328525       9428.9824      106.24306      2.9479856      30.588293    
      3280   291.58626     -126992.84     -125999.39      8710.7511      278.86421      2023.09        2.331773       9415.8487      106.28006      2.8972436      29.75227     
      3300   306.1915      -127034.18     -125990.96     -4444.2876      279.52373      1917.1748      2.3339792      9406.9483      106.29216      2.9771998      31.849769    
      3320   313.95398     -127056.01     -125986.35     -11327.772      252.0529       1861.3709      2.3337036      9408.0592      106.28382      3.0685778      36.024663    
      3340   315.45303     -127060.69     -125985.92     -970.42925      290.94046      1811.0723      2.3322523      9413.9137      106.15556      2.9356366      39.61262     
      3360   307.24049     -127035.71     -125988.92      15527.142      431.57221      2057.8789      2.3348048      9403.6219      105.91148      2.7024098      41.0477      
      3380   299.93399     -127018.98     -125997.08      7993.1944      281.58505      1869.5863      2.3364943      9396.8221      105.77381      2.7617563      40.683395    
      3400   298.76301     -127018.39     -126000.49     -16256.763      428.75321      2058.8489      2.3329081      9411.2672      105.92713      3.1544045      39.756714    
      3420   301.99925     -127033.61     -126004.68     -20329.337      274.34328      1862.7996      2.326859       9435.7334      106.22889      3.6506981      38.554852    
      3440   292.1141      -127006.64     -126011.39      7070.0569      255.91918      1945.0996      2.3251373      9442.7206      106.34223      3.8919581      36.784759    
      3460   295.6186      -127019.81     -126012.62      21992.335      340.31343      2025.1045      2.3271571      9434.5248      106.14723      3.7930355      34.209942    
      3480   290.8247      -127007.25     -126016.39     -9756.2236      196.0309       1837.893       2.3274557      9433.3143      105.86782      3.6554861      31.936752    
      3500   288.10455     -126997.77     -126016.18     -17140.175      260.36471      1982.323       2.3316678      9416.2735      105.75725      3.7295018      31.987812    
      3520   299.13146     -127032.79     -126013.63      14208.274      309.86513      1892.0448      2.3385611      9388.5175      105.73471      3.8656967      34.634464    
      3540   291.28089     -127000.73     -126008.31      2291.5802      371.00632      2027.2297      2.3387505      9387.757       105.66683      3.8076893      38.103638    
      3560   301.2316      -127027.66     -126001.35     -13675.745      496.6226       2090.6446      2.3389974      9386.766       105.51345      3.5220943      39.949042    
      3580   295.12876     -126999.72     -125994.19      4186.9009      287.23844      1990.8084      2.3421732      9374.0383      105.42642      3.2683262      39.280424    
      3600   307.7829      -127032.82     -125984.19      10652.957      310.07638      1941.7121      2.3406471      9380.1503      105.74572      3.2865406      37.021121    
      3620   314.1302      -127046.26     -125976         3263.5916      266.09471      1848.1896      2.3383707      9389.2818      106.33795      3.44641        34.21884     
      3640   304.71453     -127007.69     -125969.51     -5393.5186      317.05687      1977.2304      2.3400012      9382.7395      106.70826      3.4116174      32.54485     
      3660   308.70363     -127017.45     -125965.68     -7359.239       190.37911      1829.0566      2.3449598      9362.8988      106.65982      3.1311639      31.912028    
      3680   303.63603     -126997.92     -125963.41     -7537.9317      242.02274      1942.4142      2.3473618      9353.3182      106.37569      2.8830194      31.53628     
      3700   304.12103     -126996.71     -125960.55     -1685.6766      257.70593      1938.0469      2.3487106      9347.9467      106.11703      2.9267924      31.192997    
      3720   309.77384     -127015.14     -125959.72      3941.3206      250.26147      1903.5557      2.3504565      9341.0032      106.07624      3.2277208      31.905315    
      3740   320.21744     -127054.58     -125963.58      6982.7889      603.4552       2101.0711      2.3538634      9327.4832      106.13957      3.4092505      34.21055     
      3760   305.33609     -127013.52     -125973.22     -446.78387      276.05042      1982.4375      2.3553852      9321.4568      106.1395       3.335941       36.227877    
      3780   295.14177     -126992.43     -125986.86     -6561.6669      200.8732       1879.7675      2.351092       9338.4783      106.11833      3.2643781      36.911577    
      3800   294.01979     -127002.85     -126001.11      1028.3004      625.03277      2013.1072      2.3453151      9361.4804      106.07472      3.3462236      35.801533    
      3820   292.22835     -127011.1      -126015.46      3933.7921      212.37714      1968.5888      2.3418651      9375.2717      105.95164      3.5182399      33.848934    
      3840   302.26067     -127056.72     -126026.89     -7871.5853      226.54679      1881.9517      2.3402852      9381.6009      105.77007      3.6035319      33.255275    
      3860   289.93922     -127026.29     -126038.45      2183.5096      308.87748      1941.331       2.342239       9373.7752      105.48853      3.4622808      33.688201    
      3880   279.29333     -126995        -126043.43      7324.9342      413.90128      2085.2173      2.3390099      9386.716       105.21886      3.3110988      33.237342    
      3900   282.11113     -127002.49     -126041.32     -10573.588      564.77672      2131.8489      2.3340407      9406.7006      105.05097      3.3203156      32.068699    
      3920   297.25209     -127049.82     -126037.06      2101.7762      222.91905      1817.0163      2.3361944      9398.0285      105.02497      3.3688586      31.191463    
      3940   298.05821     -127047.15     -126031.65      10901.489      353.64692      1941.2319      2.3342818      9405.7289      105.2539       3.3579589      31.356424    
      3960   289.26196     -127012.07     -126026.53     -6524.5901      290.31891      1951.2636      2.3276024      9432.72        105.57863      3.1980048      32.49776     
      3980   291.11248     -127010.83     -126018.99     -9838.4289      265.09426      1886.9871      2.3238836      9447.8145      105.76157      3.0572527      34.053868    
      4000   293.29301     -127011.8      -126012.53      8312.2617      320.67015      2031.1709      2.3244715      9445.4252      105.73574      3.1842103      35.701805    
      4020   307.26917     -127051.59     -126004.71      5613.8422      279.78646      1932.5123      2.3237471      9448.3698      105.61508      3.4421931      37.214763    
      4040   317.38296     -127079.37     -125998.02     -11983.114      363.18514      1879.888       2.3235094      9449.336       105.54221      3.6772015      38.865008    
      4060   303.06049     -127029.26     -125996.71      4355.8565      303.7019       2001.0786      2.3282252      9430.1965      105.46156      3.7776962      40.756094    
      4080   299.16186     -127016.16     -125996.89      4263.0874      372.33077      2073.969       2.3334442      9409.1048      105.3848       3.7760791      42.716925    
      4100   298.54744     -127013.89     -125996.72     -13836.413      247.76519      1902.8939      2.3356639      9400.1631      105.44277      3.8677282      43.468343    
      4120   289.25556     -126982.49     -125996.98      11009.724      404.57052      2079.3107      2.3404513      9380.9349      105.62046      3.9278831      41.530283    
      4140   293.96045     -126995.78     -125994.24      3410.5241      381.55203      2032.0216      2.3372164      9393.9188      105.88522      3.8948942      37.667572    
      4160   295.25916     -126996.3      -125990.33     -14349.813      298.75221      1893.1263      2.3312763      9417.8549      106.03556      3.8413889      33.690964    
      4180   287.07565     -126963.6      -125985.51      11362.874      297.37028      2131.5647      2.3326854      9412.1656      105.90439      3.7361822      31.137553    
      4200   299.85924     -127000.26     -125978.62      4481.4155      314.84891      2020.3538      2.3343698      9405.3743      105.65543      3.6644586      31.304439    
      4220   306.08523     -127013.19     -125970.34     -13653.94       458.09832      2010.7258      2.3355452      9400.6408      105.50003      3.5850965      33.96798     
      4240   302.84802     -126998.56     -125966.74      4650.4912      250.97804      1924.6546      2.3402752      9381.641       105.48108      3.4051264      38.163879    
      4260   295.80372     -126972.72     -125964.9       6235.0062      323.39679      2091.6442      2.3438949      9367.1526      105.55811      3.269724       41.965126    
      4280   293.71385     -126961.05     -125960.35     -12584.661      318.02845      1957.7978      2.3422519      9373.7233      105.68028      3.2347653      43.448462    
      4300   297.11642     -126969.6      -125957.3      -4280.8696      303.05931      2000.3804      2.3415931      9376.3608      105.8271       3.2297586      42.865927    
      4320   301.94671     -126981.84     -125953.09      12817.805      362.84933      2103.064       2.3416727      9376.0419      106.01405      3.2039973      41.31076     
      4340   299.00912     -126970.31     -125951.57      310.73547      266.66769      1992.6401      2.3411574      9378.1057      106.12867      3.1117149      39.351067    
      4360   310.06391     -127007.68     -125951.27     -12025.745      266.56845      1943.1643      2.3403157      9381.4786      106.11364      3.1158518      37.625515    
      4380   308.58026     -127003.09     -125951.74      6500.6766      506.10653      2127.7771      2.3451918      9361.9727      105.95379      3.2889425      36.78988     
      4400   313.75355     -127024.45     -125955.48      7080.9203      274.52292      1883.8816      2.3473194      9353.4868      105.76965      3.4649099      36.249011    
      4420   310.45485     -127019.07     -125961.33     -5893.4479      212.87272      1881.0961      2.3446055      9364.3138      105.73082      3.5135761      35.559591    
      4440   301.36071     -126994.5      -125967.75     -11042.356      570.27596      2126.0407      2.3401378      9382.1917      105.84203      3.4506704      35.799874    
      4460   303.51844     -127010.32     -125976.21     -3901.0191      349.87665      1976.7951      2.341144       9378.1595      105.99851      3.4233425      37.183147    
      4480   292.4902      -126978.12     -125981.58      11253.841      289.20035      2101.7192      2.3441494      9366.1359      106.11461      3.4507494      39.143835    
      4500   292.56828     -126982.9      -125986.1      -5315.9159      336.58437      1988.7424      2.34517        9362.0597      106.20651      3.3974907      40.258878    
      4520   302.69839     -127018.43     -125987.12     -4617.1951      229.31987      1961.7094      2.3444502      9364.934       106.27126      3.2354023      39.466917    
      4540   310.46829     -127047.22     -125989.43      6418.129       233.85478      1824.1626      2.3434578      9368.9001      106.2372       3.0928908      37.329455    
      4560   304.24567     -127030.14     -125993.55      597.47222      324.17869      2003.3122      2.3406669      9380.0708      106.09265      3.0630459      34.521228    
      4580   290.68253     -126990.22     -125999.85     -4593.8985      280.14214      2067.1718      2.3393378      9385.4002      105.86823      3.1278845      32.406806    
      4600   301.81847     -127031.39     -126003.07      5630.2306      276.01845      1964.1021      2.3391454      9386.1722      105.77883      3.1830445      32.111925    
      4620   299.56264     -127026.85     -126006.22     -1458.2332      572.70031      2102.3562      2.3345984      9404.4531      105.93162      3.0861133      33.237392    
      4640   292.69551     -127007.26     -126010.03     -4338.3697      250.34348      1983.4953      2.3300433      9422.8385      106.12701      2.9093622      34.925016    
      4660   304.37724     -127049.88     -126012.85      5768.1289      356.64542      1928.129       2.3291669      9426.3839      106.18097      2.849978       36.558514    
      4680   297.91375     -127029.77     -126014.76     -2534.6379      243.53144      1950.4849      2.3288248      9427.7685      106.02597      2.8824673      37.649672    
      4700   300.00721     -127041.19     -126019.04      96.457622      435.9492       2043.1964      2.3294659      9425.1739      105.81271      2.9671287      37.41362     
      4720   296.68616     -127036.05     -126025.22      4679.8577      256.28137      1911.5593      2.3304219      9421.3078      105.65972      3.0244859      35.629426    
      4740   285.29786     -127006.14     -126034.11     -6324.0641      233.6237       1915.6923      2.3297356      9424.0828      105.48476      2.996473       33.393045    
      4760   288.08631     -127023.41     -126041.88      5139.0872      359.47263      1942.4494      2.3327138      9412.0512      105.24862      2.9673443      31.364905    
      4780   275.53405     -126986.26     -126047.5       75.53662       310.59819      2020.4838      2.3319762      9415.028       105.14259      3.0427668      30.069834    
      4800   281.40315     -127008.87     -126050.11     -7798.8629      197.25977      1811.3353      2.3285334      9428.9487      105.33072      3.1844818      30.17613     
      4820   284.19524     -127013.32     -126045.05      13764.722      319.06794      1960.8984      2.3306456      9420.4035      105.71749      3.2344847      32.160881    
      4840   285.38142     -127009.79     -126037.48     -11985.736      199.36033      1867.2458      2.3299157      9423.3547      106.08714      3.1341298      35.26792     
      4860   295.5327      -127032.12     -126025.22     -4430.7927      272.23924      1826.0589      2.336565       9396.5381      106.19278      2.9869723      38.118332    
      4880   292.24804     -127006.8      -126011.09      15559.233      300.06151      1978.4323      2.3407358      9379.795       106.11774      2.9468919      40.407808    
      4900   300.0592      -127015.89     -125993.56     -20306.447      191.11264      1823.7014      2.3350214      9402.7496      106.10038      3.0897445      41.372951    
      4920   291.63251     -126975.83     -125982.22      2612.028       328.09624      1988.8839      2.3382552      9389.7455      106.13043      3.2589841      40.8479      
      4940   292.46548     -126967.88     -125971.43      20066.942      241.44476      1980.6719      2.3422756      9373.6287      106.28485      3.3240185      38.638065    
      4960   294.35747     -126965.04     -125962.14     -2557.9905      389.95642      1871.0015      2.3421613      9374.0861      106.53803      3.3270491      35.288481    
      4980   291.38161     -126944.54     -125951.79     -18355          226.33829      1861.5057      2.340665       9380.0787      106.76658      3.3612255      32.697329    
      5000   304.09205     -126980.29     -125944.22      1726.004       234.71499      1889.5957      2.3447597      9363.6978      106.85268      3.4855157      31.722946    
      5020   309.17724     -126988.61     -125935.23      15421.258      324.67048      1938.3281      2.3462         9357.9495      106.75296      3.5481999      31.502157    
      5040   308.74642     -126982.2      -125930.28      3252.2513      686.16489      2127.3671      2.3444828      9364.8038      106.53457      3.457798       32.035158    
      5060   306.56466     -126973.39     -125928.91     -10414.942      379.19092      1958.4276      2.3429595      9370.8926      106.26326      3.3363715      33.84731     
      5080   291.40038     -126922.4      -125929.58     -6832.805       244.67046      1893.4418      2.343437       9368.9829      105.98685      3.2748642      36.073288    
      5100   295.85994     -126936.3      -125928.28      11208.87       282.19554      1981.2468      2.3467302      9355.8354      105.80209      3.3180942      37.317816    
      5120   301.84413     -126953.2      -125924.8      -398.78387      187.33234      1857.3046      2.3426856      9371.9881      105.77381      3.371964       37.154518    
      5140   307.57518     -126970.32     -125922.39     -8692.152       228.75463      1902.6817      2.3366883      9396.0422      105.8536       3.2764538      35.478772    
      5160   304.91976     -126960.91     -125922.03      321.27291      324.86783      2046.6519      2.3357505      9399.8147      105.94886      3.0884492      33.382403    
      5180   302.96468     -126954.55     -125922.33      6213.3528      273.90627      1899.6398      2.3367485      9395.7998      106.00475      2.8985931      32.425956    
      5200   301.34592     -126949.09     -125922.39     -7061.372       263.24136      1869.2552      2.335356       9401.4022      106.06404      2.8224156      32.516862    
      5220   300.83239     -126948.8      -125923.84      499.68984      369.67574      2013.1825      2.3363574      9397.3729      106.0669       2.8470532      32.616695    
      5240   305.66999     -126970        -125928.56      5315.7606      341.43732      1936.021       2.3390814      9386.429       106.01013      2.8684964      32.789313    
      5260   315.0767      -127007.82     -125934.33     -7584.7963      254.21198      1815.8326      2.339239       9385.7967      105.97402      2.856502       34.355183    
      5280   302.28819     -126973.58     -125943.66      5787.2933      260.8194       1920.9605      2.3403448      9381.3619      105.97033      2.8015785      37.173989    
      5300   309.02968     -127010.78     -125957.9      -3706.2127      241.02827      1886.3613      2.3362658      9397.7411      106.09214      2.8253627      39.202823    
      5320   301.73        -127003.15     -125975.14      3327.1031      240.40124      1926.4345      2.3365409      9396.6349      106.2016       2.9454303      39.454423    
      5340   290.27288     -126980.44     -125991.46     -1105.6305      259.35825      2039.1928      2.3344458      9405.0681      106.22116      3.0106998      37.460953    
      5360   300.89657     -127025.98     -126000.81     -1439.7462      413.98434      1986.6958      2.3322122      9414.0752      106.14317      2.9486744      34.61975     
      5380   308.47168     -127059.25     -126008.26      4275.3318      232.46349      1846.9874      2.3317601      9415.9008      105.98476      2.8564914      32.41361     
      5400   298.39268     -127031.52     -126014.87     -7719.7302      297.82815      1923.1556      2.3305514      9420.784       105.828        2.9047035      31.8746      
      5420   294.16198     -127022.61     -126020.38      9309.0813      297.75186      2026.5229      2.3364258      9397.0976      105.66224      3.1140758      32.99762     
      5440   290.79366     -127013.9      -126023.15     -13292.034      205.64573      1884.14        2.3381934      9389.9939      105.56981      3.3001691      34.275476    
      5460   284.26173     -126991.04     -126022.54      7167.9983      293.85813      1950.9965      2.3409944      9378.7588      105.60948      3.2929746      35.23744     
      5480   286.51869     -126994.04     -126017.86      4478.7659      240.79188      1964.6967      2.3366225      9396.3068      105.76984      3.1266376      36.31238     
      5500   300.36912     -127033.24     -126009.86     -16883.372      233.95633      1852.8692      2.3296351      9424.4895      105.89718      2.9932204      37.332253    
      5520   302.07675     -127034.28     -126005.08      11515.941      290.98348      1987.0529      2.3330782      9410.581       105.86688      3.0160262      37.234103    
      5540   298.42774     -127016.87     -126000.11      5120.9031      365.5655       2016.063       2.3330447      9410.7162      105.81351      3.1196045      35.2729      
      5560   298.12112     -127008.19     -125992.47     -20061.725      277.47018      1887.7586      2.3330169      9410.8282      105.80461      3.103165       32.322962    
      5580   303.16047     -127020.92     -125988.03     -957.7728       270.98681      1918.3223      2.3382583      9389.7331      105.78091      2.9523747      30.161745    
      5600   306.6917      -127027.8      -125982.88      11809.873      222.34021      1987.3389      2.3444554      9364.9132      105.69048      2.8332993      30.040888    
      5620   304.77018     -127015.69     -125977.32     -15169.838      284.42123      1989.8159      2.3420294      9374.6141      105.60926      2.8118788      31.304158    
      5640   307.32047     -127022.34     -125975.28     -10367.186      188.31596      1824.3336      2.3381571      9390.1395      105.58514      2.8358845      32.687378    
      5660   302.32338     -127004.38     -125974.35      15462.395      274.58456      2088.6948      2.3373236      9393.4882      105.64897      2.7250018      34.498558    
      5680   308.30207     -127026.46     -125976.05     -6873.3521      257.77029      2009.1553      2.3349119      9403.1905      105.79389      2.4746909      36.161881    
      5700   299.29254     -127000.5      -125980.79     -7655.2913      287.57516      1873.3432      2.338851       9387.3535      105.84154      2.3577826      37.298186    
      5720   300.06171     -127008.88     -125986.55      7515.0854      281.07671      1926.3281      2.3429691      9370.8542      105.74845      2.4018384      37.835227    
      5740   305.44625     -127033.09     -125992.41      5190.4987      267.20538      1962.057       2.3442893      9365.5767      105.60892      2.4981146      37.778881    
      5760   302.13771     -127035.11     -126005.71     -5141.4388      203.66222      1865.035       2.3446425      9364.166       105.53673      2.5753692      37.218669    
      5780   292.25358     -127019.26     -126023.54     -6497.9603      244.92254      1882.6401      2.344042       9366.5648      105.55921      2.5282726      37.067654    
      5800   279.72829     -126991.7      -126038.65     -589.21487      237.49861      1891.5966      2.3448821      9363.2091      105.61625      2.5013308      37.867984    
      5820   285.36663     -127022.12     -126049.85      7040.7088      311.96565      1950.3362      2.3445975      9364.3459      105.69997      2.5612117      38.62039     
      5840   296.41852     -127065.02     -126055.1       4582.0127      223.76532      1764.4545      2.3423149      9373.4714      105.81929      2.5899203      38.276069    
      5860   297.3355      -127071.51     -126058.46      1446.3856      288.94909      1831.8618      2.3402753      9381.6405      105.95659      2.5597958      37.038171    
      5880   294.34214     -127061.78     -126058.94     -4467.8482      239.4404       1796.3191      2.3366807      9396.0725      105.9981       2.4785023      36.581315    
      5900   284.45828     -127028.53     -126059.36     -5788.9895      242.93546      1864.3804      2.3343668      9405.3863      105.84469      2.4766032      37.610621    
      5920   301.17518     -127082.78     -126056.66      1475.8831      219.12355      1768.336       2.333679       9408.1583      105.61654      2.6736761      38.643771    
      5940   299.93099     -127076.02     -126054.13      8044.4863      192.08631      1841.3462      2.3332627      9409.8368      105.44956      2.9196917      39.127021    
      5960   292.50811     -127046.63     -126050.03     -5857.7689      316.82486      1936.3806      2.3336013      9408.4718      105.45237      3.0284731      38.454317    
      5980   286.1156      -127019.44     -126044.63     -5859.4696      227.48282      1877.0585      2.3346907      9404.0813      105.52516      2.9590737      36.663206    
      6000   278.73322     -126984.06     -126034.4       12539.61       237.8658       1911.6027      2.3344816      9404.924       105.50883      2.7975719      34.599178    
      6020   292.12687     -127011.74     -126016.44     -6879.2816      241.13892      1846.2897      2.3308959      9419.3916      105.41847      2.6855513      33.38309     
      6040   299.21748     -127018.66     -125999.21     -19461.351      233.2774       1814.2804      2.3288289      9427.7522      105.34344      2.6566084      33.363618    
      6060   298.71653     -127009.22     -125991.47      8563.0474      226.8695       1938.4756      2.3333888      9409.3284      105.37349      2.6122442      34.155232    
      6080   298.41629     -126998.16     -125981.44      28646.215      246.80621      1996.235       2.3364111      9397.1568      105.43189      2.557055       35.442191    
      6100   298.3556      -126993.73     -125977.21     -15971.882      182.39931      1892.9378      2.3314255      9417.2519      105.40726      2.558554       36.759147    
      6120   317.84738     -127056.45     -125973.52     -18590.367      213.32236      1812.5725      2.3315006      9416.9487      105.28285      2.5471764      37.818607    
      6140   310.48774     -127032.2      -125974.35      23000.318      226.06528      1920.0183      2.3376584      9392.1428      105.25172      2.5628235      38.056076    
      6160   294.41807     -126983.29     -125980.19      9217.6208      190.721        1897.9266      2.3378824      9391.2427      105.50816      2.6412216      37.435901    
      6180   283.01522     -126944.31     -125980.06     -17792.892      239.93355      1916.9557      2.3341861      9406.1142      105.83315      2.6221991      36.570753    
      6200   288.35638     -126961.75     -125979.3       386.0473       280.27152      1931.1891      2.3349013      9403.2335      105.95836      2.5366635      35.259599    
      6220   305.32353     -127012.79     -125972.53      14388.91       250.86311      1835.9495      2.3370924      9394.4175      105.89322      2.4952266      33.540536    
      6240   308.78494     -127020.79     -125968.74      6446.3016      225.11862      1896.6483      2.3353291      9401.5108      105.78868      2.5672239      32.477876    
      6260   305.50464     -127006.27     -125965.4      -9822.53        238.92878      1891.3936      2.3327696      9411.826       105.75561      2.7772063      32.814723    
      6280   300.63687     -126989.15     -125964.86     -7688.5772      213.17446      1835.1727      2.3347017      9404.0372      105.68545      2.9129681      33.731422    
      6300   286.26592     -126939.77     -125964.44      4831.5512      272.30013      1925.2536      2.3394416      9384.9838      105.5116       2.9078583      34.220081    
      6320   293.78477     -126961.01     -125960.07      9137.4034      254.37329      1834.3065      2.3429988      9370.7353      105.41109      2.871954       34.014406    
      6340   299.83559     -126975.82     -125954.27      7299.4         176.81445      1763.5652      2.3418751      9375.2316      105.47924      2.7760725      34.08058     
      6360   299.99891     -126967.86     -125945.74      6028.5196      219.04797      1831.6285      2.3382506      9389.7643      105.69071      2.7013911      35.087927    
      6380   308.76044     -126985.97     -125934.01      3250.6865      219.33983      1885.3461      2.3363008      9397.6004      105.84307      2.6584334      36.187676    
      6400   315.03353     -127000.27     -125926.93     -1425.9418      208.33125      1768.2923      2.3395388      9384.5941      105.75533      2.5253518      36.364671    
      6420   319.49413     -127012.37     -125923.83      601.27053      189.11911      1787.8075      2.3436806      9368.0092      105.67058      2.4052481      35.191817    
      6440   313.47856     -126992.45     -125924.41     -2617.8924      240.92833      1905.1563      2.339717       9383.8789      105.75278      2.4016144      33.491857    
      6460   301.15689     -126953.5      -125927.44     -7221.5725      229.09494      1869.9398      2.3368481      9395.3994      105.82378      2.5445588      32.790833    
      6480   306.47407     -126977.22     -125933.04     -7404.6837      270.93448      1837.2673      2.3398445      9383.368       105.8674       2.8045456      33.180971    
      6500   296.69707     -126954.5      -125943.64     -2971.7357      173.92137      1864.7083      2.3434595      9368.8932      105.96726      2.9735878      33.601016    
      6520   296.17943     -126961.94     -125952.84      4014.6397      300.89913      1951.0585      2.3460781      9358.4359      106.19598      3.0198641      32.802663    
      6540   308.74919     -127016.73     -125964.8       11750.197      322.52622      1880.905       2.3424499      9372.9312      106.46689      3.0645205      30.534438    
      6560   294.00911     -126982.82     -125981.11      5576.3773      315.31497      1926.1308      2.3387722      9387.6699      106.48693      3.1512068      28.308204    
      6580   293.72534     -126994.54     -125993.8      -5094.8258      270.17817      1916.9547      2.338879       9387.2412      106.25949      3.2882892      27.586351    
      6600   291.61107     -126995.81     -126002.27     -18380.612      197.51655      1783.9968      2.3366392      9396.2393      105.99727      3.2765682      28.622944    
      6620   296.35343     -127019.13     -126009.43     -14016.158      204.4844       1807.7583      2.3367079      9395.9632      105.83833      3.1389216      30.798857    
      6640   297.18363     -127025.47     -126012.95      16959.728      244.08192      1988.1037      2.3431771      9370.0223      105.74154      3.1485113      33.539754    
      6660   291.8529      -127009.4      -126015.04      21520.468      533.73396      2231.3928      2.3463878      9357.2006      105.67579      3.3119209      36.432156    
      6680   299.55932     -127036.75     -126016.13     -17408.259      237.60582      1850.1651      2.340897       9379.1489      105.71625      3.4389268      39.093242    
      6700   295.00238     -127020.89     -126015.79     -3883.5377      246.63376      1998.1516      2.340399       9381.1446      105.86721      3.3949797      40.392209    
      6720   307.20721     -127060.47     -126013.8       20452.148      313.61592      1970.7789      2.3428113      9371.4852      106.10719      3.212254       39.439583    
      6740   311.02731     -127075.36     -126015.67     -8860.2166      211.1587       1846.2069      2.3364083      9397.1682      106.30937      3.0657497      37.244646    
      6760   302.78463     -127050.9      -126019.29     -11327.471      185.25672      1847.2804      2.3330754      9410.5925      106.28305      3.0929299      35.284515    
      6780   301.29651     -127051.17     -126024.63      9722.4636      238.94964      1849.3747      2.3354758      9400.9203      106.082        3.160411       34.497033    
      6800   291.09415     -127019.67     -126027.89      4983.246       283.69973      1970.3568      2.3348869      9403.2914      105.98845      3.1545773      34.262781    
      6820   292.19228     -127022.93     -126027.41     -11289.456      212.07067      1906.5045      2.3370255      9394.6863      106.12819      3.0985825      33.498765    
      6840   292.05183     -127021.69     -126026.65      6195.0999      283.66724      1903.3049      2.3440984      9366.3395      106.36555      3.1114302      32.616249    
      6860   287.06311     -127000.36     -126022.31      7035.7847      236.62555      1925.1705      2.3435513      9368.5261      106.53099      3.2988049      32.676538    
      6880   290.87002     -127006.91     -126015.89     -9102.8944      227.08224      1871.3746      2.3381934      9389.9938      106.50284      3.425326       34.212562    
      6900   290.80353     -126998.96     -126008.17     -4687.4022      287.7242       1882.9635      2.3368338      9395.4568      106.37021      3.3956029      36.406641    
      6920   307.89927     -127045.47     -125996.43      10626.731      237.0002       1898.6463      2.3382789      9389.6504      106.29497      3.2910665      37.813816    
      6940   314.89859     -127061.29     -125988.41      1130.545       221.77684      1876.1966      2.3381906      9390.005       106.22739      3.2311429      37.965199    
      6960   305.93524     -127025.94     -125983.59     -10057.723      173.62773      1819.6896      2.339664       9384.0918      106.04816      3.3774258      36.999222    
      6980   296.00435     -126989.36     -125980.86      5230.0483      266.88893      1898.4781      2.3430674      9370.4611      105.7744       3.5572893      35.190995    
      7000   287.05915     -126955.72     -125977.69      9379.0226      308.92024      2002.4373      2.3437062      9367.9071      105.60685      3.6020841      33.69669     
      7020   299.56654     -126995.09     -125974.45     -8080.0367      195.52797      1887.7396      2.3395807      9384.4259      105.76645      3.5897532      34.114901    
      7040   306.23418     -127014.81     -125971.45     -5624.6932      198.7617       1837.2689      2.3412028      9377.9237      106.08157      3.5807793      35.672793    
      7060   298.13922     -126986.58     -125970.8       5692.8068      235.27391      1914.005       2.3435356      9368.5888      106.33509      3.6573718      37.108764    
      7080   300.91881     -126994.87     -125969.62      11112.464      272.36445      1973.3572      2.3425888      9372.3753      106.38594      3.6929135      37.624055    
      7100   301.44252     -126996.57     -125969.53     -3817.3527      253.42286      1808.0148      2.3385112      9388.7179      106.25587      3.5555258      36.582337    
      7120   299.20939     -126986.61     -125967.19     -12500.293      324.68815      1965.6439      2.3348329      9403.5088      106.16719      3.3885132      33.93252     
      7140   293.63205     -126967.89     -125967.47      5221.9928      189.9444       1849.3893      2.3365891      9396.4408      106.16444      3.32358        30.235187    
      7160   288.74745     -126948.96     -125965.18      20462.844      240.36979      1913.0566      2.3416209      9376.2494      106.19329      3.4675031      27.208949    
      7180   298.44202     -126977.84     -125961.03     -2913.7921      193.6993       1867.7487      2.3458753      9359.2451      106.23449      3.7013259      26.20814     
      7200   308.28385     -127005.11     -125954.77     -24818.238      194.7493       1815.944       2.3434658      9368.8678      106.34258      3.819612       27.251417    
      7220   313.04317     -127018.55     -125951.99     -18938.386      320.03495      1865.4361      2.338545       9388.5821      106.51126      3.8509312      29.442621    
      7240   302.89723     -126984.52     -125952.53      30105.993      307.69599      2036.7893      2.3408837      9379.202       106.51689      3.8615175      31.532632    
      7260   295.41167     -126964.32     -125957.84      6465.9638      273.594        1954.2373      2.3378474      9391.3833      106.37411      3.8979615      32.699794    
      7280   303.15803     -126988.14     -125955.26     -26193.929      225.69796      1852.2269      2.3354419      9401.0567      106.19406      3.9177172      32.872614    
      7300   302.20908     -126990.8      -125961.15     -2147.107       309.82857      1943.9781      2.3401657      9382.0797      106.03573      3.8952374      32.900194    
      7320   303.44336     -126997.1      -125963.25      14935.363      225.73485      1982.7849      2.3436428      9368.1602      105.94871      3.8761801      33.849286    
      7340   298.86479     -126987.67     -125969.42     -14028.747      186.3132       1849.6856      2.3394045      9385.1325      105.886        3.8288674      35.271061    
      7360   294.16088     -126978.35     -125976.12      440.04619      288.68642      1872.653       2.3383175      9389.4954      105.88093      3.8859147      35.811539    
      7380   294.9039      -126987.29     -125982.53      7851.4408      220.91847      1889.9171      2.3369851      9394.8487      106.05046      4.02584        34.919958    
      7400   293.1754      -126987.09     -125988.22     -11893.411      270.45158      1830.5849      2.3369349      9395.0506      106.3154       4.0456114      33.166311    
      7420   297.08786     -127008.77     -125996.57      5660.7985      258.30631      1887.6966      2.3408102      9379.4966      106.5303       3.9363414      31.876435    
      7440   293.34994     -127004.14     -126004.68      9382.2633      177.53807      1815.2218      2.3404617      9380.8935      106.57131      3.7818405      31.260098    
      7460   281.40807     -126971.07     -126012.29     -8344.1845      204.13467      1893.7433      2.3355357      9400.679       106.41489      3.6698253      30.778183    
      7480   281.55146     -126976.3      -126017.04      1613.0962      288.27661      1922.2162      2.338022       9390.6821      106.17753      3.6507899      31.191994    
      7500   289.53605     -127002.13     -126015.67      10101.43       349.22229      1896.717       2.3419488      9374.9366      106.10511      3.6760075      33.103672    
      7520   297.04867     -127024.21     -126012.15     -4196.3261      191.12637      1757.4264      2.3384254      9389.0622      106.24973      3.6963677      35.631348    
      7540   294.25616     -127006.92     -126004.37     -5073.2168      224.66063      1816.3518      2.3329327      9411.1681      106.34781      3.6957571      37.302426    
      7560   303.93229     -127032.74     -125997.22      9785.6735      232.95937      1808.9178      2.3329422      9411.1296      106.21354      3.7216288      36.972981    
      7580   295.31942     -126995.38     -125989.2      -3439.014       228.99483      1789.4386      2.3346706      9404.1623      106.03412      3.7935734      34.971741    
      7600   301.21158     -127004.22     -125977.97     -10297.563      189.52413      1813.2269      2.3360504      9398.6078      106.10835      3.8596613      32.337943    
      7620   311.93236     -127029.18     -125966.41      4104.0916      345.48493      1822.3424      2.3394207      9385.0678      106.30483      3.8886818      29.940708    
      7640   313.65934     -127026.11     -125957.45      10970.859      204.11897      1775.4758      2.3450117      9362.6918      106.29191      3.8835246      28.317271    
      7660   320.60271     -127045.36     -125953.04     -1452.0701      217.89494      1810.346       2.3444026      9365.1244      106.01671      3.8684243      27.454017    
      7680   301.85859     -126981.26     -125952.81     -14447.269      220.72793      1874.2087      2.3395245      9384.6514      105.72133      3.8855209      27.633401    
      7700   303.68055     -126990.33     -125955.67      15857.731      395.2785       1948.5145      2.3397035      9383.9333      105.76834      3.9510895      29.023606    
      7720   304.29181     -126995        -125958.26      3214.9174      345.61066      1952.0523      2.3367906      9395.6308      106.16436      4.0252655      30.852765    
      7740   305.4652      -127000.23     -125959.49     -22068.895      175.72832      1837.4618      2.3351344      9402.2948      106.52297      4.0952925      32.358742    
      7760   315.60519     -127044.76     -125969.47      10524.409      240.15658      1938.26        2.3426142      9372.2736      106.5399       4.1016824      33.570018    
      7780   300.27844     -127007.21     -125984.14      14696.513      302.50519      1856.4735      2.3443199      9365.4544      106.37728      4.0553507      33.814018    
      7800   289.62942     -126981.93     -125995.15     -25759.291      194.36058      1798.0679      2.3394738      9384.8547      106.37302      4.0071071      32.562042    
      7820   292.46987     -127006.68     -126010.22      17519.852      485.62514      2072.3578      2.3461642      9358.0924      106.44467      3.9218041      30.481104    
      7840   292.52863     -127014.84     -126018.18     -1363.7802      245.51498      1871.6079      2.3446978      9363.945       106.44612      3.794338       28.645719    
      7860   299.80628     -127044.86     -126023.4      -16872.512      320.3426       1755.6913      2.3424638      9372.8757      106.21651      3.6714767      28.291497    
      7880   290.62683     -127020.33     -126030.14      10619.578      343.08889      1910.7828      2.3429797      9370.8117      105.88206      3.5499353      29.490639    
      7900   289.06078     -127016.56     -126031.71     -57.240039      177.08523      1758.9943      2.3392174      9385.8832      105.82064      3.4811311      31.959493    
      7920   295.97973     -127039.01     -126030.59     -9213.5786      241.14978      1700.8128      2.3351288      9402.3171      106.04822      3.4577325      35.433004    
      7940   288.41849     -127010.57     -126027.91     -608.27191      352.69304      1887.4433      2.3353867      9401.2788      106.1901       3.424236       38.673229    
      7960   290.9064      -127015.08     -126023.95      7907.9421      195.20183      1828.97        2.3378783      9391.2593      106.03907      3.3343697      40.199712    
      7980   295.89677     -127028.37     -126020.23     -1689.6076      303.1012       1793.447       2.3383199      9389.4856      105.71978      3.1760017      38.877987    
      8000   292.21629     -127010.49     -126014.89     -7658.6373      354.75685      1808.5303      2.3392349      9385.8132      105.51757      3.0359181      34.995079    
      8020   296.75601     -127022.15     -126011.08      3748.9059      245.76011      1797.1935      2.3416084      9376.2996      105.54744      2.9650167      31.199509    
      8040   291.49941     -126998.82     -126005.66      6611.7188      328.3991       1844.4185      2.3425414      9372.565       105.65514      2.9851962      29.924753    
      8060   296.20453     -127007.75     -125998.56     -6181.4413      189.61572      1754.2002      2.3376219      9392.2894      105.70952      3.0596866      30.851901    
      8080   298.15862     -127008.63     -125992.78     -3181.7096      218.96626      1761.1473      2.3336337      9408.3409      105.69646      3.0977148      32.614504    
      8100   299.9191      -127008.7      -125986.85      9336.0522      219.98554      1762.9082      2.3328545      9411.4834      105.73777      3.1011635      34.368846    
      8120   303.0721      -127015.08     -125982.49     -1515.1239      225.23194      1805.2191      2.3298719      9423.5318      105.90879      3.1481369      36.32732     
      8140   294.60024     -126981.5      -125977.78     -8074.5349      365.89161      1846.3336      2.3305447      9420.8112      106.0315       3.2130102      39.063736    
      8160   308.00764     -127022.1      -125972.7       10725.808      256.54505      1829.4368      2.3330509      9410.691       105.95373      3.2319124      41.521816    
      8180   313.7529      -127037.58     -125968.61     -6316.2702      263.6531       1836.8366      2.3301395      9422.4493      105.73357      3.2073781      41.885538    
      8200   314.83712     -127043.84     -125971.17     -991.18176      241.1808       1834.3163      2.3337275      9407.9628      105.52099      3.1895509      39.379983    
      8220   314.53166     -127047.44     -125975.81      13701.426      474.53559      2117.8344      2.3371818      9394.058       105.51625      3.2393554      35.350864    
      8240   302.76811     -127015.03     -125983.48     -18275.589      237.02841      1867.3902      2.3317524      9415.9316      105.70308      3.3814269      32.391283    
      8260   297.56625     -127008.33     -125994.5       13020.203      317.73342      1976.5855      2.3330347      9410.7565      105.76263      3.456385       31.304376    
      8280   295.0534      -127007.67     -126002.41     -4296.8885      265.64631      1956.4145      2.3305988      9420.5924      105.6716       3.3807122      31.399608    
      8300   295.97908     -127016.33     -126007.91     -16171.143      213.44386      1822.7834      2.3297519      9424.0169      105.59938      3.2473244      32.477378    
      8320   295.17196     -127018.87     -126013.2       28245.233      318.86407      1978.1489      2.338347       9389.377       105.64665      3.1519578      34.792231    
      8340   294.99375     -127022.9      -126017.84     -23672.909      179.77777      1803.0401      2.3370432      9394.6151      105.83343      3.0880759      37.910608    
      8360   296.54795     -127034.18     -126023.83      545.91972      219.33481      1871.489       2.3431661      9370.0662      105.93385      3.0481835      40.105115    
      8380   293.75297     -127022.77     -126021.93      7525.5618      554.59003      2130.8338      2.3442319      9365.8063      105.9258       2.9909249      39.624516    
      8400   291.73758     -127016.36     -126022.39     -12795.506      251.92793      1863.467       2.3440755      9366.4311      105.88181      2.8788073      36.485677    
      8420   299.52588     -127042.02     -126021.52      5224.9403      300.80109      1898.7645      2.3443078      9365.5027      105.98243      2.7707517      32.839491    
      8440   305.95918     -127061.21     -126018.79      4353.3971      202.43549      1805.1745      2.3402771      9381.6335      106.23971      2.7280816      30.836367    
      8460   304.09849     -127053.1      -126017.02     -7523.2524      228.68235      1906.9164      2.3365357      9396.6555      106.41245      2.7000488      30.645919    
      8480   300.94006     -127044.19     -126018.87      4046.081       250.99497      1860.1407      2.3404005      9381.1385      106.29497      2.6158287      31.070175    
      8500   289.30729     -127005.74     -126020.05      5033.0786      296.01981      1819.6068      2.3426944      9371.953       106.02354      2.4427592      31.601236    
      8520   291.25221     -127009.02     -126016.71     -6214.3456      209.84926      1818.9895      2.341043       9378.5638      105.87905      2.3617907      32.839528    
[...]
     37940   295.53814     -127001.64     -125994.72     -11746.29       237.42226      1832.7997      2.3382469      9389.779       105.9174       3.0616323      31.244709    
     37960   296.6128      -127002.53     -125991.95      2212.0087      227.23659      1893.3215      2.3403084      9381.5077      106.04651      3.0441311      30.908994    
     37980   303.37408     -127023.7      -125990.08      10349.61       243.61256      1800.156       2.3421808      9374.0078      106.13032      3.3282172      30.582249    
     38000   300.27596     -127011.39     -125988.33      1109.0389      213.96438      1896.9931      2.3375577      9392.5472      106.10102      3.5163522      31.028532    
     38020   307.57947     -127036.17     -125988.23     -8019.3842      162.69006      1757.3246      2.334255       9405.837       105.90733      3.3624019      32.612793    
     38040   300.34849     -127013.41     -125990.1      -5370.075       379.69631      1975.4223      2.3335943      9408.4998      105.66865      3.0684064      34.530578    
     38060   301.97216     -127020.11     -125991.28      5908.2666      214.52608      1836.466       2.3358118      9399.568       105.58878      3.041786       35.498331    
     38080   296.9801      -127003.51     -125991.68      3752.4115      234.95828      1847.1718      2.3366906      9396.0327      105.69526      3.3690295      34.758991    
     38100   297.36724     -127004.19     -125991.04     -5037.5655      396.54114      1882.9406      2.3375294      9392.661       105.89897      3.6378022      32.984401    
     38120   305.58246     -127030.57     -125989.43     -3838.7886      199.1693       1813.5759      2.3384774      9388.8535      106.1742       3.6237647      31.482688    
     38140   300.89557     -127015.38     -125990.21      2788.0013      394.57419      1960.9301      2.3378591      9391.3366      106.44748      3.4885625      30.847069    
     38160   302.76687     -127024.4      -125992.86      3399.3274      261.83827      1885.9968      2.3367091      9395.9583      106.62897      3.5061933      30.840737    
     38180   297.93221     -127010.79     -125995.72      428.96598      177.71157      1783.768       2.3356359      9400.2758      106.60102      3.6585795      30.986034    
     38200   293.64491     -126997.14     -125996.67     -3748.6876      272.23312      1876.1011      2.3350793      9402.5165      106.35001      3.5604361      31.096597    
     38220   302.31379     -127028.65     -125998.65      1977.2154      214.8402       1881.2629      2.3371123      9394.3375      106.00544      3.1455373      31.230486    
     38240   288.13884     -126979.87     -125998.16      2705.3123      217.32812      1886.8653      2.3380349      9390.6302      105.76399      2.7610605      31.490754    
     38260   292.94673     -126990.89     -125992.8      -1896.6011      289.77591      1934.4376      2.3387747      9387.6598      105.70686      2.7125756      31.819032    
     38280   302.76212     -127019.42     -125987.89     -1876.0056      304.36089      1855.3294      2.3411491      9378.139       105.78843      3.0508907      32.382893    
     38300   302.32195     -127010.75     -125980.72      3346.194       188.35105      1875.1925      2.3427911      9371.566       105.92481      3.3480091      33.191185    
     38320   314.54161     -127039.63     -125967.97      48.197296      231.73297      1860.9724      2.3399081      9383.1126      106.06876      3.3909093      33.907856    
     38340   304.75594     -126991.43     -125953.1      -3808.8212      246.20012      1871.4632      2.3353069      9401.6002      106.13192      3.3619639      34.481475    
     38360   307.36193     -126983.94     -125936.74      1561.749       220.34236      1937.3393      2.3342432      9405.8843      106.06087      3.3885737      34.880551    
     38380   315.58736     -126996.86     -125921.63      4448.3682      276.78992      1931.6796      2.3345171      9404.7808      105.90946      3.5608232      35.086545    
     38400   311.93851     -126974.95     -125912.15     -2567.8578      204.67157      1919.6221      2.3387938      9387.5833      105.76661      3.5756166      35.430947    
     38420   315.92406     -126981.45     -125905.08     -6681.0023      223.43618      1859.2175      2.3433644      9369.2732      105.75951      3.3272716      36.144689    
     38440   305.7351      -126945.31     -125903.65     -7952.9105      191.46627      1788.6633      2.3402727      9381.6508      105.88334      3.1261248      36.656891    
     38460   304.02005     -126939.1      -125903.28      6088.9352      299.63283      1963.2846      2.3393736      9385.2567      105.99965      3.0963487      36.146374    
     38480   312.86816     -126971.59     -125905.63      11428.757      275.45624      1862.5866      2.3381297      9390.2497      106.07459      3.2212257      34.655654    
     38500   306.72208     -126956.48     -125911.46      4511.5852      191.51102      1840.092       2.3338572      9407.4399      106.13673      3.1972416      32.864264    
     38520   306.57064     -126960.11     -125915.6      -14238.333      273.18375      1846.9358      2.3297822      9423.8944      106.17775      2.8351965      31.396871    
     38540   301.62868     -126953.47     -125925.8      -8644.7745      230.51423      1818.076       2.3311731      9418.2718      106.00401      2.3761328      30.765769    
     38560   301.81527     -126966.67     -125938.37      11770.276      169.99007      1815.923       2.3371831      9394.0529      105.63758      2.1281401      31.212019    
     38580   300.22704     -126970.06     -125947.17      14742.517      286.57105      1842.7648      2.3398759      9383.2418      105.31478      2.1614117      32.363116    
     38600   290.99386     -126948.05     -125956.61      2718.3378      180.95614      1788.2621      2.3363417      9397.4359      105.20435      2.1977546      33.605617    
     38620   294.22743     -126964.26     -125961.8      -16190.682      245.74649      1837.4223      2.3312213      9418.077       105.33241      2.0876628      34.643917    
     38640   299.05433     -126983.92     -125965.02     -12043.199      302.66655      1800.4984      2.3331694      9410.213       105.54392      2.1086971      35.112992    
     38660   299.8406      -126991.16     -125969.59     -3028.7187      166.66968      1807.6134      2.3366104      9396.3553      105.79172      2.4574391      35.023384    
     38680   305.78715     -127012        -125970.16      11752.699      242.33774      1887.2788      2.3371643      9394.1286      106.06472      3.0166454      35.07265     
     38700   296.04017     -126981.96     -125973.33      9276.6751      338.42764      1960.1682      2.3341414      9406.2944      106.26865      3.4196099      36.024482    
     38720   302.42177     -127003.02     -125972.65     -11988.572      216.87153      1778.3449      2.331426       9417.2501      106.29993      3.3734972      37.385219    
     38740   301.43447     -127001.88     -125974.87     -7528.6159      161.23646      1731.4814      2.3328783      9411.3876      106.12189      3.1179695      38.131178    
     38760   292.40803     -126972.19     -125975.93      11279.552      287.56069      1948.5171      2.3377911      9391.6099      105.93959      3.0889456      38.290471    
     38780   298.20973     -126991.73     -125975.71     -615.15932      241.64769      1859.7126      2.3383661      9389.3005      105.96602      3.3086764      38.225952    
     38800   296.62394     -126983.87     -125973.25     -7793.6009      260.16062      1835.6312      2.3366586      9396.1615      106.12388      3.4680934      38.033778    
     38820   302.29134     -127001.49     -125971.56      3936.7534      218.74618      1875.7742      2.3375372      9392.6297      106.24194      3.2777534      37.96554     
     38840   303.76212     -127005.59     -125970.65      2621.3312      212.85567      1899.864       2.3355661      9400.5566      106.22451      2.9418924      38.03864     
     38860   302.32        -127001.87     -125971.85     -4750.1241      222.23488      1830.4378      2.3356944      9400.0404      106.09499      2.8337773      37.790862    
     38880   302.46144     -127002.78     -125972.28      1571.3807      175.57976      1855.3982      2.3392993      9385.5547      105.97729      2.9480196      37.065597    
     38900   295.0081      -126979.22     -125974.11      3387.6775      280.71017      1957.8649      2.3404486      9380.9458      105.9336       2.9749545      36.171237    
     38920   306.55891     -127018.5      -125974.03     -3181.1268      180.82637      1812.9209      2.3394494      9384.9527      105.83187      2.6796058      35.246878    
     38940   309.4183      -127030.18     -125975.97     -3375.968       232.79726      1870.2373      2.3382348      9389.8274      105.60889      2.2967758      34.437718    
     38960   310.56386     -127039.71     -125981.6       3070.1252      275.36844      1925.6686      2.3362725      9397.7144      105.48768      2.2388757      34.210352    
     38980   311.79004     -127055.22     -125992.94      729.35926      314.0404       1827.8765      2.3370082      9394.7558      105.66794      2.5829083      34.749899    
     39000   297.17233     -127019.12     -126006.63     -3848.9146      186.59749      1857.9374      2.339248       9385.7605      106.06898      2.8917983      35.724254    
     39020   294.78831     -127025.49     -126021.13     -1788.1674      267.39039      1885.6934      2.3398727      9383.2546      106.38628      2.8381003      36.592135    
     39040   297.11829     -127048.65     -126036.35      1482.2231      190.23462      1746.1567      2.3406657      9380.0759      106.3837       2.6117674      36.750491    
     39060   292.17443     -127041.51     -126046.05      3827.2189      257.18624      1836.7098      2.3367967      9395.6062      106.19918      2.6065062      36.12363     
     39080   284.12163     -127017.38     -126049.35      3386.1598      362.87845      1988.1512      2.3340082      9406.8312      106.0453       2.8720799      35.36605     
     39100   291.44051     -127043.19     -126050.23     -1993.6756      282.10976      1807.5954      2.3364761      9396.8953      105.97902      3.0227418      35.341456    
     39120   298.13571     -127066.15     -126050.38     -5943.6223      238.97568      1732.3087      2.3376144      9392.3195      105.94517      2.7822244      36.272779    
     39140   294.31942     -127051.02     -126048.26     -2297.0384      201.6817       1762.8817      2.3398373      9383.3967      105.80847      2.3911322      37.165609    
     39160   292.57833     -127042.01     -126045.18      4990.6411      299.97847      1870.215       2.3389464      9386.9707      105.61827      2.2723017      37.223403    
     39180   293.62668     -127043.02     -126042.61      3636.1625      208.51689      1802.2395      2.337567       9392.5101      105.55033      2.5649406      36.958421    
     39200   295.6984      -127042.39     -126034.92     -4719.9111      230.45968      1802.3581      2.335141       9402.2681      105.66436      2.8398482      37.532798    
     39220   298.21872     -127044.53     -126028.48     -8065.6812      221.83015      1822.8405      2.3335933      9408.5038      105.80194      2.7332771      39.358698    
     39240   297.20715     -127037.07     -126024.47      6318.5515      185.41016      1846.301       2.3368917      9395.2243      105.76473      2.425111       41.346159    
     39260   300.36293     -127042.23     -126018.87      6273.1229      254.44058      1863.8077      2.3397215      9383.861       105.61513      2.3568224      42.220383    
     39280   302.15283     -127043.09     -126013.63     -4761.4641      272.52139      1857.9164      2.3394673      9384.8809      105.54111      2.5871519      41.542386    
     39300   304.41582     -127046.24     -126009.08     -10015.507      220.78478      1779.0805      2.3362858      9397.6609      105.68762      2.7738933      40.037417    
     39320   300.57655     -127029.79     -126005.7       9114.8961      339.88014      1923.0138      2.3370877      9394.4363      105.89829      2.6677323      38.459727    
     39340   295.73057     -127010.48     -126002.91      2349.8832      322.84808      1865.2057      2.3375367      9392.6318      106.009        2.4406088      36.714617    
     39360   297.87465     -127014.47     -125999.59     -11962.403      216.61321      1819.6149      2.3377386      9391.8206      106.04612      2.5125312      34.788941    
     39380   297.05776     -127009.09     -125997         5336.5762      254.71049      1913.7325      2.340335       9381.4011      106.06094      2.8405052      33.644451    
     39400   292.58238     -126990.32     -125993.47      6334.385       339.66984      1972.0779      2.3382613      9389.721       106.06791      3.0042891      34.45192     
     39420   303.21596     -127017.28     -125984.21     -14593.116      205.88869      1843.3696      2.3320235      9414.837       105.99948      2.8112686      36.784949    
     39440   310.72969     -127039.08     -125980.4       2984.6064      212.08683      1844.465       2.3339699      9406.9859      105.72795      2.4823692      38.803804    
     39460   309.56545     -127033.83     -125979.12      10341.049      305.84598      1930.4375      2.3354002      9401.2244      105.40625      2.3911997      39.390322    
     39480   301.97671     -127004.84     -125975.99     -15828.203      280.83756      1873.0413      2.3322866      9413.7752      105.2322       2.5957255      39.044116    
     39500   292.02104     -126970.51     -125975.58     -2428.7272      212.48783      1855.7338      2.3334953      9408.8989      105.2202       2.741157       38.978286    
     39520   297.86915     -126985.42     -125970.57      17094.829      331.98988      1942.2791      2.3335051      9408.8593      105.31353      2.5770544      39.541086    
     39540   297.95367     -126978.93     -125963.78     -3860.2621      209.76111      1841.1108      2.3314538      9417.1378      105.36702      2.2816729      39.788357    
     39560   305.67913     -126992.12     -125950.65     -15529.024      344.87441      1843.6943      2.3302528      9421.9912      105.36913      2.2519126      38.679264    
     39580   310.48897     -126993.23     -125935.37     -6035.6282      165.00265      1792.0237      2.3323567      9413.492       105.37847      2.5257245      36.468029    
     39600   310.94344     -126981.02     -125921.62      8464.474       315.87328      1881.7592      2.3357603      9399.7751      105.40718      2.674759       34.833576    
     39620   313.50209     -126978.23     -125910.11      13769.707      171.21287      1861.7946      2.3385793      9388.4442      105.45217      2.5022043      35.128117    
     39640   313.08261     -126970.33     -125903.64      8379.7803      212.45216      1867.8638      2.3383392      9389.4083      105.5001       2.2718474      37.048119    
     39660   314.48297     -126975.01     -125903.55     -4640.561       193.23612      1798.8587      2.3341404      9406.2984      105.57662      2.2992159      38.864156    
     39680   308.16989     -126955.93     -125905.97     -7789.8928      190.47805      1868.2529      2.3319906      9414.9699      105.66636      2.5861566      38.817822    
     39700   309.72933     -126965.77     -125910.5       5065.3746      292.62459      1928.7252      2.334073       9406.5704      105.78664      2.7620508      36.816182    
     39720   315.09054     -126990.97     -125917.43      2023.0322      213.91262      1893.2154      2.3348226      9403.5501      105.94228      2.622087       34.122274    
     39740   311.18743     -126991.55     -125931.32     -4518.4496      215.15949      1793.2405      2.3354899      9400.8634      105.98315      2.3565333      31.791532    
     39760   299.77915     -126967.22     -125945.85      3133.012       328.33884      1950.7689      2.3371437      9394.2112      105.82744      2.294405       30.259628    
     39780   295.74952     -126966.89     -125959.25     -2446.8532      242.98675      1915.1225      2.3375596      9392.5397      105.58048      2.484434       29.830312    
     39800   299.84057     -126988.75     -125967.17      70.421251      207.00408      1856.2798      2.3419285      9375.0178      105.42528      2.6274435      30.7229      
     39820   301.51052     -127000.65     -125973.39      3091.4097      257.4379       1783.3656      2.3451272      9362.2305      105.47827      2.5184188      32.918599    
     39840   292.21377     -126975.59     -125980        -1887.9548      225.91658      1845.3216      2.341284       9377.5988      105.61838      2.2921581      35.635907    
     39860   291.9233      -126976.75     -125982.14     -93.89375       292.18547      1878.3773      2.3381023      9390.3596      105.6458       2.299984       37.454449    
     39880   298.71809     -127001.9      -125984.15      2303.2789      215.5129       1769.6475      2.3379611      9390.9267      105.55489      2.5009455      37.421632    
     39900   302.06365     -127013.17     -125984.02     -1405.9095      236.12408      1811.8427      2.3369892      9394.8321      105.60772      2.6029196      35.994763    
     39920   306.40374     -127028.11     -125984.18     -1218.28        223.10156      1809.0109      2.3363841      9397.2653      105.86697      2.5193045      34.488236    
     39940   296.33574     -126995.39     -125985.75      2790.3188      318.59964      1878.0194      2.3375976      9392.387       106.00663      2.3423142      33.477429    
     39960   293.57272     -126987.35     -125987.12     -2099.6298      239.18456      1840.5072      2.3363519      9397.3948      105.88289      2.3850192      32.908546    
     39980   295.53621     -126994.86     -125987.95     -589.332        252.17778      1840.5836      2.3370652      9394.5269      105.63004      2.6983936      32.629365    
     40000   291.8608      -126980.36     -125985.97      4115.7903      299.77219      1892.3914      2.3362963      9397.6187      105.52801      2.9090711      32.736737    
Loop time of 1406.49 on 32 procs for 40000 steps with 1144 atoms

Performance: 0.246 ns/day, 97.673 hours/ns, 28.440 timesteps/s, 32.535 katom-step/s
99.2% CPU use with 32 MPI tasks x 1 OpenMP threads

MPI task timing breakdown:
Section |  min time  |  avg time  |  max time  |%varavg| %total
---------------------------------------------------------------
Pair    | 1089.5     | 1152.7     | 1165.2     |  48.8 | 81.96
Neigh   | 79.707     | 83.003     | 85.468     |  17.2 |  5.90
Comm    | 16.866     | 29.178     | 90.924     | 300.9 |  2.07
Output  | 1.0976     | 1.2936     | 1.4433     |   8.5 |  0.09
Modify  | 136.99     | 139.49     | 144.35     |  16.2 |  9.92
Other   |            | 0.7948     |            |       |  0.06

Nlocal:          35.75 ave          39 max          33 min
Histogram: 4 1 0 5 0 13 8 0 0 1
Nghost:        3360.78 ave        3450 max        3219 min
Histogram: 1 2 0 0 2 8 9 4 3 3
Neighs:        30745.8 ave       33313 max       27723 min
Histogram: 1 3 1 0 7 7 5 7 0 1

Total # of neighbors = 983865
Ave neighs/atom = 860.02185
Neighbor list builds = 4000
Dangerous builds not checked
unfix           npt


write_data npt.lammps
System init for write_data ...

# isotropic volume relaxation to hydrostatic target

#fix             3 all box/relax  vmax 1.0e-3
#variable        emin equal pe+f_3/atoms
#thermo_style    custom step temp pe pxx pyy pzz f_3 v_emin  cella cellb cellc cellalpha cellbeta cellgamma
#minimize    1.0e-6 0.001 1000 10000

write_data final.lammps
System init for write_data ...
Total wall time: 0:23:26
