LAMMPS data file via write_data, version 2 Aug 2023, timestep = 1000000, units = real

276 atoms
4 atom types

2.2524028347155083 13.117094165285499 xlo xhi
2.2524028347155083 13.117094165285499 ylo yhi
6.616176067265922 38.52996593273043 zlo zhi
0 0 0 xy xz yz

Masses

1 12.0107
2 1.00794
3 15.999
4 14

Atoms # charge

160 2 0.1301616509866531 5.164575208170974 3.9902531991264367 7.513072457234884 1 1 0
7 1 -0.1056861783544626 10.294686041806077 6.436661475732409 9.12987865659543 0 0 0
15 2 0.1260126905308638 2.7295912632580546 5.568798146801542 9.976166516281694 1 0 0
25 1 -0.1502856524339379 10.928741212358617 7.284247175638696 13.080949710910009 0 0 0
139 2 0.1427392277906515 11.862269603654266 2.959585041706682 9.729962166574293 0 1 0
158 1 -0.01841432303879457 5.864350480381124 2.9941791208203115 9.356911744906675 1 1 0
3 1 0.2717111905456756 9.910229402221717 5.09958382474598 7.086866847752363 0 0 0
173 1 -0.1475541922346653 5.34750948065177 6.450286564880298 12.479891738848476 1 1 0
140 1 -0.144772592525879 12.579785727364843 2.3367081836904853 9.148134933660666 0 1 0
1 2 0.1604452628834034 8.385163388598333 5.510567971940834 8.613840621720822 0 0 0
162 1 -0.111079850727601 5.657015306081364 4.147007509596694 8.487334294647933 1 1 0
164 1 -0.1583980398807128 6.083787650025332 5.459797391576474 8.861492979825579 1 1 0
176 1 -0.02538088946018342 4.750112600529895 7.065446308829677 13.639357454969218 1 1 0
161 1 -0.1046412140834135 6.624376848648046 3.2577891803967964 10.570369278575047 1 1 0
167 1 0.2207063998279342 6.711240209126943 5.715801493026346 10.114346336753599 1 1 0
163 1 -0.1614914975364103 6.9770092197416655 4.58222629232635 10.949812068133998 1 1 0
5 2 0.1448107187811358 9.938495195848382 6.773164840486718 10.084469141270272 0 0 0
168 3 -0.5183888668646417 6.809622704824149 7.020541709766927 10.549235653085212 1 1 0
8 1 -0.1131361629068271 11.356138952651516 5.269130924133293 6.732651396012727 0 0 0
165 2 0.1692205494982841 7.534325090810153 4.813701813694828 11.865911289991388 1 1 0
2 1 -0.1561317249974542 9.434328950346599 5.712079381225813 8.307037138069235 0 0 0
10 1 -0.02026135453416315 11.734352392621602 6.616883541965056 8.8329765044298 0 0 0
143 2 0.1203347397214703 3.4700961161543176 3.0184539449422374 10.1813066984148 1 1 0
172 2 0.1564195908033707 5.116916036566652 5.444474060715424 12.078036788595394 1 1 0
21 2 0.1441237402367365 12.14292431039566 6.006564204204734 11.935764336406086 0 0 0
166 2 0.1513606558670594 5.82517089298095 6.235055896488222 8.12664979940229 1 1 0
23 1 -0.09989384420862538 11.709241328281284 6.985055142132982 11.98465279019129 0 0 0
17 1 0.0123950223709772 12.633200389624555 7.512232622790742 9.658557718705534 0 0 0
27 2 0.1815071058481666 10.829482775623987 6.491896817725363 13.827131777578503 0 0 0
170 1 0.2513240463316009 6.36433877050004 7.193523480240198 11.786233880587638 1 1 0
12 1 -0.1105561653626741 12.222554680282744 6.014629701123049 7.6016652282629185 0 0 0
34 2 0.1702029313908733 8.481108135540884 6.586102279966008 13.74459446031517 0 0 0
16 2 0.1373998719804399 2.360350357420069 6.265846694355113 7.26731433516192 1 0 0
41 3 -0.4801019761918746 6.927076466143319 4.388326667501925 14.500759205178177 0 0 0
11 1 -0.3015621013796598 3.0279685939201855 6.626686452637847 10.013644974293541 1 0 0
179 3 -0.462353021194642 2.99435868851538 5.622772065642531 14.314139210297565 1 1 0
4 2 0.1356746651275993 3.7910961506045058 6.819593975444071 9.154290799364935 1 0 0
13 2 0.1548042317022112 3.3599545280673846 6.877046704775772 11.093106607595875 1 0 0
159 2 0.1228004212935928 6.9294828270990445 2.422955171004844 11.26012723991096 1 1 0
145 1 -0.1210578086384663 3.106297975792506 2.3983606297834874 9.350975317639342 1 1 0
199 1 -0.02990633583826432 9.389473646321314 3.0560027540532264 19.419935663965134 0 1 0
45 2 0.1849985231650949 4.964796646221169 3.2322534829117853 14.912495547987717 0 0 0
191 1 -0.1380422327165872 10.96425805458146 6.954106820356206 18.394726436133396 0 1 0
219 1 -0.2956926928620567 3.5735454362522487 5.807756496742459 20.150171566143605 0 0 0
38 1 -0.008763168828327901 7.694624573358636 6.242432293712211 15.73176696985905 0 0 0
39 1 -0.04828917958241644 7.473717136833347 6.587551682969186 17.1841841766231 0 0 0
42 1 0.4097338825501413 6.801842800041241 5.470302341368585 17.983677749868285 0 0 0
46 1 0.1751571369742901 5.263603927738444 3.398490973602156 17.040851353725614 0 0 0
40 1 0.4321011389680695 6.9725561613005205 4.877216060472351 15.585241253646702 0 0 0
213 2 0.1697945627107992 2.729675447723493 5.113261566331286 20.26302637999345 0 0 0
224 2 0.182321674862792 4.479036577122291 5.2634994001367446 20.461601894788743 0 0 0
225 1 0.01368146847160892 3.4205714418162065 7.0809239789891505 21.1167875394938 0 0 0
47 1 -0.1159069211704413 4.551892321901352 2.9035796323666068 15.89232544034955 0 0 0
222 2 0.1651879561389724 3.6443853236291743 6.05022557851375 19.04309312827278 0 0 0
227 1 -0.01924767914362089 3.360407150568462 6.676068745676375 22.520268394264413 0 0 0
187 1 -0.1457577154075854 12.92869945151985 6.066736327694899 17.25771005438308 0 1 0
194 2 0.15824793092666 10.08938467607873 6.744117307099501 18.96199068834658 0 1 0
190 1 0.1700953080291069 11.747997587008914 5.818172498021969 18.018975411119563 0 1 0
186 2 0.1983925359342932 2.6655720363047397 5.218924604605597 16.960186227827418 1 1 0
193 4 -0.4159474740069022 11.072065966744766 4.452592259161748 18.245430695842035 0 1 0
192 3 -0.4271680498320596 10.041330855692063 3.8471185852996315 15.997294616472615 0 1 0
198 1 -0.0160546018898553 9.220965513887823 2.7981057865491823 17.95356772660903 0 1 0
49 1 -0.1607201053278887 4.657928061683194 3.0061155388213554 18.26301765050171 0 0 0
196 3 -0.4660684172645089 10.96225890926723 4.499298840066848 20.63565917202861 0 1 0
197 1 0.3990260600413509 10.505149281711795 4.075275865149442 19.602537381860593 0 1 0
35 1 -0.1266440359411167 8.407835721759138 6.984106269537495 14.735423289689825 0 0 0
44 3 -0.4755575887338551 6.650528235140223 5.566004099268752 19.148408465501902 0 0 0
48 2 0.2120698582314292 5.223929115264326 3.183605272366033 19.175414293589625 0 0 0
43 4 -0.4389313015300237 6.410961502847277 4.375634258970562 16.90015554687674 0 0 0
195 1 0.401148250962475 10.123667800257087 3.772927211630665 17.176380764754747 0 1 0
184 1 0.1728195621249047 2.595901324240129 7.322417225011443 16.855720006603867 1 1 0
229 2 0.1561721480844621 2.9365835612727738 4.542987636297088 22.295847582089884 0 0 0
223 2 0.1604718747576481 12.089570185364288 6.951040267049735 21.12530332418904 -1 0 0
178 1 0.4104881635503087 3.7899947696793883 6.451241116820769 14.652461598887237 1 1 0
181 4 -0.4192565986331356 3.7946584578212805 7.319525543928901 15.921874124141505 1 1 0
211 2 0.1445094511779201 5.9540720096175885 6.91793304636981 22.082438800940004 0 0 0
203 2 0.1888701567837758 8.840877251242617 2.4141489273628234 21.409425536069257 0 1 0
92 1 -0.1180764321891535 10.717289564719412 3.390230436138441 29.308745760607522 -1 0 0
236 1 0.2436905606465412 2.7192831130803126 6.151134260715607 25.345191648343437 0 0 0
88 2 0.1451695601612049 2.450416899703375 3.501032407376729 28.033735335647346 0 0 0
84 2 0.140676127190464 3.2248267455613524 4.318926588911543 29.980987196983886 0 0 0
233 1 -0.1285348224302931 2.731183307013085 5.1091369749495925 24.39552119441461 0 0 0
235 2 0.1495325042220152 2.4145611702984127 4.099905716380515 24.748731897703355 0 0 0
98 1 0.2549598755938867 9.083226213878586 5.058498411507223 30.350290941155297 -1 0 0
237 3 -0.5136856514307169 13.103043099607834 5.823339150550462 26.593756505060078 -1 0 0
240 1 -0.1499756538717355 12.796086728387866 6.614866242117809 28.866045215965297 -1 0 0
96 2 0.1502288247451422 8.967452687397003 4.1049089688948115 28.35138562510685 -1 0 0
239 1 0.253928303486456 2.73481131296972 6.459476196616291 27.63665552160046 0 0 0
241 2 0.1687878182708969 4.555035171406093 7.012175188512869 26.700200557259294 0 0 0
94 1 -0.1466590583874479 9.557585625484982 4.191866006870444 29.282781697575395 -1 0 0
78 2 0.1380130764351875 2.433796553250136 2.3045708019693505 25.864330123014817 0 0 0
238 2 0.1566367591473355 11.772513697696244 6.173925410511724 28.892116078649554 -1 0 0
232 1 -0.150194203309559 3.0504378238110523 7.493560023879035 24.91376723759125 0 0 0
231 1 -0.1006882844250884 3.053237706318376 5.320397080281792 23.026710549698564 0 0 0
243 1 -0.09816600478382857 2.333907630946529 7.296858822428822 30.059771076996 0 0 0
242 1 -0.1492791525502364 4.001235576938986 7.116269209686446 27.610709672526685 0 0 0
99 3 -0.4901583166774114 7.822118647779807 5.361902619944676 30.510776699937754 -1 0 0
90 2 0.1333262151697371 10.899487100872157 2.6444403304977797 28.494858575722844 -1 0 0
83 1 -0.1119108311122762 2.37187318967299 2.4061223283077204 28.005072157439244 0 0 0
89 1 -0.02036774664810178 11.599288492340325 3.3966894640461542 30.4554561841717 -1 0 0
75 2 0.1437959115169739 4.16223625330745 2.7618639640982763 30.414229681046024 0 0 0
126 3 -0.4454059141543154 3.0827760180577775 5.42998040024491 35.61446858083326 0 0 0
108 1 -0.01855016172793973 8.568765057960789 7.140084528829031 34.15639210097403 -1 0 0
136 1 -0.1396893001238198 7.130316840728874 3.7737260646022914 37.20769288846546 0 0 0
93 1 -0.1064076176129806 11.182135224581032 4.314749206758546 31.555056762831015 -1 0 0
134 2 0.1190777280769322 5.1612717371957 3.2133118961365548 36.368952152384686 0 0 0
133 1 -0.1287012729272072 5.759172877168734 4.00901327725466 36.76791820804631 0 0 0
9 2 0.1782255128196438 11.706861402375857 4.847921540380191 37.68703577208892 0 0 -1
95 1 -0.1579973399342091 10.09297935811079 5.155433236089536 31.436016863186605 -1 0 0
97 2 0.1622124787895926 9.822912153286225 5.847315494477437 32.231160702463924 -1 0 0
137 3 -0.4868641197191819 9.14248334866171 4.347150061519367 38.19698223759809 0 0 0
127 1 0.3753842999461579 3.9055153740363826 5.930167336853874 36.38960914281668 0 0 0
91 2 0.1439051089459881 11.803189973331413 4.398593648387434 32.40242430300262 -1 0 0
135 1 0.2729222407176708 7.922691193768625 4.780174601889545 37.83729275101067 0 0 0
106 2 0.1675281731713235 7.56811819465834 5.255830598178407 34.914246390296924 -1 0 0
100 2 0.1535274766738324 6.683872364653891 4.6414574699331705 32.66200902986925 -1 0 0
132 1 -0.1381140779935546 7.36299953755681 6.1026835750578545 37.97062240434799 0 0 0
102 1 -0.130491211945416 7.27825150703686 5.542207317312759 32.789629157672785 -1 0 0
105 1 -0.05525735731080578 7.718351569422324 5.985133670743538 34.07380035804395 -1 0 0
244 2 0.1649984958292751 12.636072431160521 7.352575155711874 30.9190013487503 -1 0 0
129 1 -0.0442504704805886 6.104651708077234 6.459530083939704 37.40483214746918 0 0 0
130 1 -0.05995349191909494 5.278002593485059 5.381684018844952 36.7352217641112 0 0 0
138 2 0.1579196825224785 7.442810431578195 2.722746100360913 37.17026624147789 0 0 0
104 1 -0.1346690655181406 8.395560074297691 7.442216665696854 31.620197487090067 -1 0 0
101 1 0.2425801363027907 7.664854576640393 6.2403323601017675 31.5935572226225 -1 0 0
86 2 0.1297591990488734 3.470100938328298 3.7976801251127625 31.698821387690522 0 0 0
113 3 -0.4582322617247088 9.555134634967867 7.331347144405601 36.32303356490887 -1 0 0
124 4 -0.4360766720173218 3.8195048397930624 7.362394736674929 36.99429569511656 0 0 0
131 2 0.1682935948234414 7.9822498531869925 6.833713736548642 38.47650655504266 0 0 0
115 2 0.2164079374793056 11.96453506608275 7.313799875540547 36.08838286266942 -1 0 0
81 1 -0.3007840780754893 3.2933804043305175 3.391159459687323 30.640810976033627 0 0 0
85 2 0.1381661069113003 12.535719278129207 2.3280662861339576 32.78832416029624 -1 0 0
87 1 0.0127633541379383 12.796827443931381 2.53970369024674 30.552166694373064 -1 0 0
175 2 0.1414717419622048 6.803689850978696 9.862403965781875 13.95709205222207 1 1 0
19 2 0.1438407128226712 2.8820923853848677 8.332364303380178 7.907487130647086 1 0 0
152 1 -0.3144510386130961 6.36173973904794 12.161149862890518 7.535001170994516 1 0 0
142 2 0.129361672070708 6.8975969077695 11.35550183527278 10.175248627348385 1 0 0
6 2 0.1444549602919853 12.231848812566593 9.27584334726512 8.350103128567419 0 0 0
24 1 -0.1158735207823949 11.339441187185532 9.307853500750305 11.051036494612257 0 0 0
22 2 0.1378050996990862 11.426438998106192 10.045306978883955 10.255202785645892 0 0 0
169 2 0.1500760056480285 7.779141734480141 8.910407004875164 11.98534408504706 1 1 0
154 2 0.1397359831567229 4.2485157159149605 10.91107627581128 6.771158018594023 1 0 0
20 1 -0.0121034250254154 11.927913819230941 7.99585043470878 10.920947137959683 0 0 0
28 2 0.1473697520333142 10.220418195212275 10.698078118868438 12.441141528061735 0 0 0
150 1 -0.1238773705682919 3.6230194454390707 11.576619525074882 7.45067294540385 1 0 0
29 1 0.2662507985959345 10.400943918839179 8.649213654068461 13.264077737478836 0 0 0
149 1 -0.3078658761036707 5.838057416653653 11.401635856918308 9.959935072048578 1 0 0
177 1 -0.06198828112498424 5.142715476772019 8.427328762789639 14.175786202424163 1 1 0
26 1 -0.1401106813144791 10.62475390165707 9.670762812771194 12.227388106673626 0 0 0
275 3 -0.5130852738590077 10.897115087845226 11.928142768281376 8.035458174548864 0 0 1
276 2 0.139909538823328 9.484317998350619 9.575435257430701 8.136744232499971 0 0 1
151 2 0.1262269768315774 5.3301903564015625 11.65506525712308 10.936923574274083 1 0 0
171 1 -0.1405941907782697 6.920988510233521 8.39954108798839 12.388783401870768 1 1 0
174 1 -0.079981092127864 6.343324603015081 8.926959913091427 13.544068853310598 1 1 0
14 1 -0.2969444587716553 2.2536293130657623 8.715058918543203 8.775239072116406 1 0 0
153 2 0.1411166632882836 5.536388093252111 10.363923222710184 9.611983342954598 1 0 0
273 1 0.2516245791285626 10.280021702677583 11.334294591846419 6.965091758945372 0 0 1
155 1 0.01570034156140414 5.503584196806561 12.4871880042244 8.83192782599963 1 0 0
18 2 0.1362323101915065 3.0030530880436412 9.400015767286087 9.36360553971177 1 0 0
146 1 -0.1671353346541811 2.253721990182269 11.614545321442645 7.175339054147257 1 0 0
274 1 -0.1611926004433631 9.494015092214628 10.163534166387727 7.193197515845475 0 0 1
148 1 -0.0087741170022585 4.031232346888677 12.463151314487693 8.561236136362313 1 0 0
141 1 0.2629467040744626 12.177465235202913 12.25954254017255 8.09774975215167 0 0 0
156 2 0.1613656352635051 6.493524558658763 11.10398706377024 7.343090779351534 1 0 0
30 3 -0.5169004737630082 9.63093585661371 9.100789962507747 14.238108719534313 0 0 0
144 2 0.1623940930672314 7.36992681904966 12.594179730113478 7.655262167104399 1 0 0
157 2 0.1277138696183016 5.8826026483237825 12.644240884363064 6.71403208856466 1 0 0
207 2 0.143140451617297 7.769203456266109 8.66798728144914 22.093585895927795 0 0 0
226 2 0.1467668367485645 3.4632740986853703 9.426234738762837 19.50070932690563 0 0 0
215 1 -0.1473381259509599 5.518640414866155 10.178940373995346 19.837852803717126 0 0 0
188 1 -0.1065954597031097 11.472419518772956 8.241379766480616 18.039857857428036 0 1 0
54 3 -0.5094467814721854 11.733748140163794 11.476563324398917 19.1063508799272 -1 -1 0
57 1 0.4132502634222335 12.414632921545977 11.93466136921106 19.950406306037998 -1 -1 0
220 2 0.1495048654128556 12.712587138053344 7.92160391829519 19.72801733870388 -1 0 0
31 2 0.1485317167539505 9.177949181140281 9.60798379302361 16.750788563022358 0 0 0
200 2 0.1572542825136275 8.291575910173545 12.348840155531455 16.460075299901526 0 0 0
189 2 0.1413258209079934 10.858985227571925 9.136861894791789 18.358089767433754 0 1 0
33 1 -0.1409049750530744 8.75537407680251 8.655057046613797 16.474082836959546 0 0 0
36 1 -0.08644992481466929 8.03104337705524 7.901863137593789 17.46334262250882 0 0 0
32 1 0.2484158636255082 9.00398977875878 8.218507063239347 15.119221745178306 0 0 0
201 1 -0.05346406691251539 8.380128357508188 12.554942118304037 17.532695557281528 0 0 0
206 2 0.1442211300182369 6.969661977288423 11.015847316585155 18.23544626718153 0 0 0
204 1 -0.1611280660303121 7.663979183405004 11.808184226686894 18.504232433267056 0 0 0
208 3 -0.4952155296350089 7.544064247728599 11.104644499166795 20.896151748124495 0 0 0
216 2 0.1739038491349008 5.286888221239495 10.969476294150429 19.196402960293437 0 0 0
37 2 0.1357207767986991 7.880071699264598 8.231723513603232 18.5032834763213 0 0 0
182 3 -0.476204407689223 4.452398320388385 9.698842771944534 16.167087046187824 1 1 0
210 1 0.2580931856007667 6.725711547863359 10.094003016570765 20.635289949031495 0 0 0
205 1 0.2642669596940668 7.8235940804393245 12.01879847147356 19.915257210591115 0 0 0
63 1 -0.1021233902981101 11.353800454197266 10.847334406229237 22.16132894642155 -1 -1 0
185 1 -0.1240617659085044 12.662391483555009 8.446687405967964 17.286484963183895 0 1 0
209 1 -0.1388863453024866 6.884648530950985 8.835630691168056 21.450438982133882 0 0 0
221 1 -0.07936624605330569 4.481231809611449 9.239969944279267 19.972525795178747 0 0 0
62 2 0.1438957338281003 10.405723100992024 10.491840429417831 21.70178970078009 -1 -1 0
51 2 0.1442929476591769 2.7264168316501167 12.914172168051707 15.025147757038793 0 -1 0
183 2 0.1818595948469806 12.989635602841844 9.474268270679898 16.98637956904298 0 1 0
60 1 -0.06199429286452375 12.32952212183461 11.592717154811087 21.434009437514113 -1 -1 0
202 1 -0.09123343624102222 8.647611916883159 13.109583887920781 20.34043097963289 0 0 0
212 2 0.141904738631719 12.699652621564212 8.597371111320108 21.439897990273415 -1 0 0
214 1 -0.08633641942062545 5.860394324471314 7.885518706733355 21.51754656443601 0 0 0
218 1 -0.009644840030639201 4.533931637054784 8.067413041922686 20.86537840059725 0 0 0
217 1 -0.3104310990066527 12.849316108668582 7.717200255084814 20.810515760435443 -1 0 0
180 1 0.4001422462423347 4.519166469689579 8.679929840319978 15.559951652094286 1 1 0
56 2 0.1998673233233252 12.671483596963302 12.25591283757856 17.247917213778415 -1 -1 0
61 1 -0.04097430401330737 2.7346080805898363 12.044253547068994 22.129649048979545 0 -1 0
53 1 -0.09912394903174851 2.698869632757507 12.833992889343712 17.2342709496424 0 -1 0
55 4 -0.4441621461423723 2.972185329467264 12.58057282898342 19.74074804390586 0 -1 0
59 1 0.3923808201101477 3.665542741831175 12.694302143694145 21.13696699282216 0 -1 0
52 1 0.1771763670300801 3.4506686779501585 13.090757031084465 18.40750393560645 0 -1 0
58 3 -0.4529664007978587 4.7382459666633565 13.102902587104907 21.422551978192566 0 -1 0
50 1 -0.07986435395822669 3.286250927475165 13.116553667341897 15.949277329706021 0 -1 0
228 2 0.1514745229998548 3.516167848893015 8.7097226702781 23.306010653986686 0 0 0
73 2 0.154929196469253 12.717406590343035 10.591984501106804 30.058392168006016 -1 -1 0
67 1 0.2163276200882672 12.662865139889352 11.068901569653704 24.241524443037292 -1 -1 0
77 1 -0.1646004984904902 2.341475360809179 12.58761608300778 26.75122413277881 0 -1 0
234 2 0.179968687599251 3.03000173301953 8.37442959928813 25.641613314005774 0 0 0
76 1 -0.1056844583916974 12.845915073030039 11.129563233648124 29.16844325814724 -1 -1 0
248 3 -0.4527020510979644 6.538802578359009 8.765892976947427 28.09612166054616 0 0 0
247 1 0.401755443375442 5.744755289518324 8.68937581690708 28.986289267129976 0 0 0
254 2 0.1752716071115241 7.569389103940943 10.74021834718149 28.968825732998077 0 0 0
230 1 -0.09520882699345654 3.33624060139734 7.688000990704555 23.563876150994584 0 0 0
69 2 0.1641512115295253 12.463887575667105 9.402029951094061 27.931834884414254 -1 -1 0
66 1 -0.1269914646242797 11.484212707256436 10.615829481965655 23.555826680239083 -1 -1 0
64 1 -0.1477861813454908 2.8170574537046673 11.711634611633588 23.54583282216532 0 -1 0
71 1 -0.1363061860014998 12.702228562392847 10.482747967514381 27.934692299293 -1 -1 0
80 1 -0.01655419483073226 12.970778714578092 12.577718880382765 29.29106981540373 -1 -1 0
65 2 0.161311655201678 3.77909271480062 11.954216187931607 24.06403195129733 0 -1 0
68 2 0.1513940919552121 10.678738409788469 10.0029695427828 23.99388296661983 -1 -1 0
70 3 -0.5167880706837625 12.72635347851497 10.478256824447818 25.575443869487735 -1 -1 0
72 1 0.2807699160749069 12.908418669595804 11.16220734571705 26.645920901280395 -1 -1 0
246 1 -0.0530482637164645 3.6429230307332023 7.941437983828853 30.007852291833796 0 0 0
245 1 -0.02293600731803709 4.43314792830225 7.916616405143185 28.749097769503937 0 0 0
259 2 0.1313542032298899 9.115406566133075 12.389269047315732 29.90434444172412 0 0 0
256 1 -0.1255319197501742 7.592571594555322 10.916986745083353 30.07043558709189 0 0 0
250 4 -0.4234411195459348 5.760761634076687 9.215003968044936 30.43688990922594 0 0 0
79 1 -0.306453434395062 12.712810029031875 12.525441577344509 31.883588370680723 -1 -1 0
271 1 -0.06019393705602048 8.793212077276529 9.631105775630305 37.95537424510993 0 0 0
82 2 0.1526000247187805 2.731383497485178 11.875722641945082 32.13588916624413 0 -1 0
267 1 -0.04978134205813665 9.553328975435134 11.563971034070335 36.51634134183101 0 0 0
257 1 0.1781667756746289 7.845925516038415 11.42962886171081 32.989660001599674 0 0 0
253 2 0.2399071145708208 6.28745115894134 9.88778317066063 32.97097009732104 0 0 0
110 3 -0.4653741855465752 10.754459465133188 9.455696900801584 32.25483322622755 -1 0 0
123 1 -0.1126180847246524 3.396279772246498 9.739892492024865 36.18960773734655 0 0 0
125 1 0.413938709993628 5.242415999116691 7.7101108975910275 37.59027786887643 0 0 0
111 1 0.4054296557485872 9.508267537616609 7.756900698317174 35.21063980701152 -1 0 0
119 1 0.1850403287049864 2.8874433086666573 8.412602806360617 36.47198700598496 0 0 0
114 1 0.18874096432303 11.717393718272426 9.253141492814795 35.21723548869106 -1 0 0
117 1 -0.1368562753325208 12.433455307037363 8.26177172392487 35.98388208464776 -1 0 0
109 1 0.3915525292623713 10.086550141722057 8.875467123858655 33.083657505633965 -1 0 0
120 1 -0.1051510926716009 2.687413351999112 10.79027435736382 35.53068794071022 0 0 0
272 2 0.1802364061952366 8.231089458765368 8.770443106365398 38.10382888461065 0 0 0
107 1 -0.06484513023486754 8.971660367311621 7.866272951295096 32.90100354925408 -1 0 0
116 2 0.1780867399619226 11.803040516903135 11.29299562865949 34.383530788902334 -1 0 0
262 4 -0.4243841628597393 8.054282026754336 11.492808688350731 34.48945076313008 0 0 0
268 1 -0.03411034284156843 8.663259787786576 10.386128731981746 36.67560478372019 0 0 0
128 2 0.1934022202283119 4.423906931029687 9.973420091407286 36.434920525893006 0 0 0
112 4 -0.4168955635479553 10.354658627002944 8.901894531587189 34.630355636404374 -1 0 0
261 1 -0.1182784289556814 8.597685768191578 12.164609700932015 32.03230572150173 0 0 0
255 1 -0.1373612789539864 6.926151442056147 10.528184991607027 32.37125254918958 0 0 0
265 1 0.3885700899295674 7.662958713586687 10.370593418052561 35.50121551859419 0 0 0
264 3 -0.4312984613833778 6.701816391746478 9.66257894575375 35.38856875712237 0 0 0
263 1 0.3900664553970367 9.335010829156166 12.168483606060505 35.10339591080219 0 0 0
118 1 -0.1012122695311204 12.29736810743077 10.508039133338372 34.91487941157389 -1 0 0
270 1 -0.1265962153420205 10.364276272047487 11.984936878003609 37.62205587884074 0 0 0
258 1 -0.08347813405696011 8.472611957483906 11.902652191627663 30.658036753746316 0 0 0
74 2 0.1703451026142021 11.846474446520418 11.85901290790363 31.755439254485477 -1 -1 0
121 2 0.1153226139215429 3.18022139600406 11.74958856369064 35.48679011404336 0 0 0
251 3 -0.420596493353434 4.042554222634146 9.014605607804084 32.20324320533335 0 0 0
147 2 0.1392941537949202 12.82637097565565 10.950812562018328 38.22882376282476 0 0 -1
266 2 0.18565297216468 9.344410754458671 12.836215994113562 32.40388157110381 0 0 0
249 1 0.3852746328898264 4.40191412657162 8.758343122249801 31.085156012033217 0 0 0
252 1 0.1750681438435903 6.775775338309516 10.219216704383676 30.948766769690224 0 0 0
269 2 0.1742609623346839 11.08478355365381 12.796446046623494 37.44396136154569 0 0 0
122 3 -0.5093508639414002 5.524149041249912 8.63391354166369 38.27592475556564 0 0 0
260 3 -0.4782050730266514 10.013742400595213 13.034235760598165 34.6118204789354 0 0 0
103 2 0.1846188154263245 8.665496710603069 7.97300909655905 30.752852288081773 -1 0 0

Velocities

160 0.016363878450812903 0.00015549388087694025 0.006087235124871573
7 -0.000808055949054387 0.003907609925342329 -0.0036238826720078805
15 0.0017321247427051552 0.002078646801808454 -0.015908312781277353
25 0.0026674126944501325 -0.0015305096283176752 0.004919200314620417
139 0.02806403542331631 -0.005322855827232382 -0.0023633407374400155
158 -0.003360881519024863 0.0038811141406608278 0.0005121328506440751
3 -0.004202341254756062 0.0010804139390938803 -0.00415185464678788
173 0.00023540636993549938 -0.003963517366917096 6.008040245376372e-05
140 0.0024079308253347185 -0.0009218554303118546 -0.01041575304213242
1 -0.0221531240176787 0.012669277786021779 -0.003900832879468669
162 -0.0022676264042621455 -0.001019969121262151 0.0026440273489540833
164 -0.0009399657703793794 -0.0006435669868377696 -0.005332659219967824
176 -0.003076869958201225 0.005062350838223622 -0.003314388442063108
161 -0.005507678301416614 -0.0009209125118770022 0.0021209629944141093
167 0.0008905055343256173 0.005727036688304347 0.010953427569285024
163 -0.0016819185692352 -0.009884363425616015 0.00728127712891277
5 -0.004717781110999533 0.01483710905356131 0.012450847967768134
168 -0.004980459713190591 -0.0023649070882767855 0.0006124361321985693
8 3.7493115066619856e-05 -0.007970913480993736 0.004229649910269067
165 -0.021016441582263803 -0.0116423680467695 -0.008999399229326407
2 0.003286853761598028 0.002607887933395571 0.0010943972475649835
10 0.00039302415171027673 -0.0071049564034891925 0.003896243983096955
143 0.008912872852833235 -0.00937074780851403 0.008856344671633156
172 0.023889814884632928 -0.03013572371958351 -0.017467036446803624
21 0.02096283694369149 0.0033471965432674846 0.018455837997633902
166 0.015772603714167877 -0.0026917916407804316 -0.006620532187109149
23 0.0024438338331257714 -0.005924981355539621 -0.0006376128063579138
17 -0.0008206389196698214 0.0035113859552212945 -0.0036580397600121865
27 0.00021619120772732763 0.013328912501728357 0.009276187953713759
170 0.00331749605125348 0.009075277289360629 -0.004642316737019589
12 0.006827018628677422 0.006172065412287428 -0.0003337497753317884
34 0.008689423104573041 0.015663621583924574 0.002434655748399873
16 -0.0173952305099373 -0.020412425785381858 0.008707399437906129
41 0.0020311608543871554 0.0029397721078125868 -0.0017863468712803405
11 0.0026150034916511077 -0.004708716571674423 5.0608293581987206e-05
179 -0.005496297449593266 0.007851976019393947 0.0010961951797736004
4 -0.00837131759057036 0.03268653984985762 -0.0065839946953705035
13 -0.014829260011357278 0.0013888902335347868 -0.017812568329107072
159 -0.004406637175891341 -0.016484654044004572 0.0005299383479255962
145 -0.00421630448833698 -0.0051079902157008085 -0.0018518200088888763
199 -0.004026842265216059 0.006631904588421207 -0.0024294872416457548
45 -0.0062987531766063014 0.007755612860097981 -0.004354039678294488
191 -0.0004344065088202149 -0.0033629754025457674 0.0006014119208544109
219 -0.00859745659878459 -0.008640967614888438 -0.0009982233650216964
38 0.004148788347534232 -0.007719473088052849 0.0001681476827700701
39 -0.0024427794894038013 -0.0014676259531424716 0.0005312509459596927
42 -0.0061493025677522226 0.0008134782315782329 -0.0011838960206961876
46 0.0002509728921404065 -0.011727190668921859 0.009154405531362111
40 -0.002381796401195971 -0.0016849943131969276 -0.009707108680897978
213 -0.0043356908260004925 0.008879868561517679 -0.025341135397755718
224 0.022841311629983714 -0.007726862093958032 0.0019942891876832563
225 0.006489325692553895 -0.0007137340834622683 0.006850411612884807
47 0.00451668418890711 -0.0021178416103210264 -0.0036830721064371233
222 0.018004723007929938 -0.014727984774267745 -0.0054547983909113435
227 -0.0043333089226075166 0.003928565632256921 -0.009321413233082158
187 0.004613569048150728 -0.0019409496833029376 -7.569335904466834e-05
194 -0.014177593319787896 0.023198820983690086 -0.0029856822210441863
190 0.0013879269057357742 -0.0024607415169069767 0.0007215971631829504
186 0.009999540400243218 -0.0009087139777456899 -0.029602078960235666
193 0.00036707910245980515 -0.00577306390211583 0.006966087084643518
192 0.002664210794997658 0.0061910856262167155 0.005284203970746318
198 0.0030088495888340506 0.0005381092838405034 0.004917750371536105
49 -0.000155447880453164 0.008702416604943456 -0.00826237525717361
196 0.01028565179928131 0.005029010219134899 0.0019873154389065347
197 -0.004421976927003955 -0.0018614065319292516 0.004089766567949543
35 0.00823092696220207 0.00210171159839181 0.007372416859182433
44 0.001059672830399199 0.0011962119764938742 -0.00018676059128830422
48 0.011676426840540197 0.005488900089497368 0.006473659048459477
43 0.0008113433489938015 0.0018510269239363569 -0.00604287364031774
195 -0.0015159115599970312 -0.0028708058171489446 0.005332205894543492
184 0.00407314416532258 -0.0021912485975553683 0.0008527079771861071
229 -0.02179117257989475 -0.004772235736084029 0.032390771518371726
223 -0.0028146377222808446 -0.010272164118233153 0.04748709654624894
178 0.00500479099972377 0.0045230361623568765 0.009560957320748924
181 0.0001061999178937183 0.009546812312093955 -0.010131992089657397
211 -0.013797201050377829 -0.006525376982214715 0.021690454318388463
203 0.005143778908471251 0.02662489277165099 -0.001242635921692166
92 0.001585949814323263 0.0009542498815804574 -0.00021815014039981787
236 0.003048850654366482 0.0032375659601177687 0.0020327714930287516
88 0.015735370800520006 0.0006086263197013714 -0.0008325481319442058
84 0.006836376778524829 0.023669988546479972 0.005845043954970738
233 -0.0033618873683909584 -0.00754543062455583 -0.006104282612824187
235 -0.020046625649578324 0.00589771650018962 -0.013507131093889478
98 0.0030268883133777323 -0.001969975350683144 0.005180947949055042