LAMMPS data file via write_data, version 2 Aug 2023, timestep = 0, units = real

276 atoms
4 atom types

0 15.369497 xlo xhi
0 15.369497 ylo yhi
0 45.146142 zlo zhi
0 0 0 xy xz yz

Masses

1 12.0107
2 1.00794
3 15.999
4 14

Atoms # charge

1 2 0 0.24996599999999997 3.201123 0 0 0 0
2 1 0 1.118172 2.855052 0.554577 0 0 0
3 1 0 1.413396 1.497438 0.606896 0 0 0
4 2 0 5.410522 4.001051 0.855131 0 0 0
5 2 0 1.68065 4.826878 1.114361 0 0 0
6 2 0 3.731849 5.991741 1.131902 0 0 0
7 1 0 1.9443920000000001 3.77796 1.195403 0 0 0
8 1 0 2.524159 1.060692 1.321975 0 0 0
9 2 0 2.757353 0 1.365648 0 0 0
10 1 0 3.085189 3.358196 1.904727 0 0 0
11 1 0 5.477636 4.072386 1.944151 0 0 0
12 1 0 3.345817 1.9824519999999999 1.9709140000000003 0 0 0
13 2 0 6.187384 4.872167 2.168369 0 0 0
14 1 0 3.746513 5.828704 2.212727 0 0 0
15 2 0 5.898395 3.137378 2.318697 0 0 0
16 2 0 4.209143 1.614962 2.518964 0 0 0
17 1 0 4.075082 4.351571 2.5560820000000004 0 0 0
18 2 0 2.776063 6.119626 2.623018 0 0 0
19 2 0 4.492741 6.50359 2.640007 0 0 0
20 1 0 4.071372 4.253711 4.097867 0 0 0
21 2 0 1.9878909999999999 3.679417 4.247811 0 0 0
22 2 0 6.118968 4.926667 4.363529 0 0 0
23 1 0 2.891898 3.943585 4.790136 0 0 0
24 1 0 5.192706 4.638212 4.849907 0 0 0
25 1 0 2.825951 4.048726 6.180686 0 0 0
26 1 0 5.126078 4.748127 6.237963 0 0 0
27 2 0 1.881659 3.874781 6.690322 0 0 0
28 2 0 5.984045 5.122019 6.79124 0 0 0
29 1 0 3.940624 4.460627 6.907318000000001 0 0 0
30 3 0 3.799742 4.825911 8.229992 0 0 0
31 2 0 5.974409 3.491775 9.03151 0 0 0
32 1 0 3.896874 4.006694 9.334833 0 0 0
33 1 0 5.11828 3.413586 9.697523 0 0 0
34 2 0 1.872688 4.462588 9.961868 0 0 0
35 1 0 2.803985 3.9558719999999994 10.20346 0 0 0
36 1 0 5.264471 2.788788 10.946381 0 0 0
37 2 0 6.220622 2.372992 11.254312 0 0 0
38 1 0 2.970604 3.318467 11.425831 0 0 0
39 1 0 4.167184 2.77463 11.806279000000002 0 0 0
40 1 0 2.035832 3.204619 12.562042 0 0 0
41 3 0 0.895904 3.626314 12.59872 0 0 0
42 1 0 4.029067 2.339083 13.226683000000001 0 0 0
43 4 0 2.762634 2.687915 13.595857000000002 0 0 0
44 3 0 4.907378 1.917912 13.952659 0 0 0
45 2 0 1.76989 4.884555 14.626794 0 0 0
46 1 0 2.316219 2.815545 14.965968 0 0 0
47 1 0 1.808387 4.064945 15.337346 0 0 0
48 2 0 2.855548 0.835482 15.678854 0 0 0
49 1 0 2.407182 1.794154 15.934948 0 0 0
50 1 0 1.344363 4.295953 16.618566 0 0 0
51 2 0 0.942358 5.266805 16.892654 0 0 0
52 1 0 1.951304 2.031365 17.248335 0 0 0
53 1 0 1.425396 3.293457 17.562526 0 0 0
54 3 0 4.451369 1.036142 18.190819 0 0 0
55 4 0 2.163088 1.147992 18.376739 0 0 0
56 2 0 1.100752 3.531857 18.571564 0 0 0
57 1 0 3.433468 1.029014 18.854543 0 0 0
58 3 0 0.027428 1.275346 19.230112 0 0 0
59 1 0 1.22891 1.152238 19.376444 0 0 0
60 1 0 3.325197 1.433946 20.279816 0 0 0
61 1 0 1.997197 1.558294 20.579878 0 0 0
62 2 0 5.361842 1.73888 20.919538 0 0 0
63 1 0 4.30958 1.853885 21.167092 0 0 0
64 1 0 1.570903 2.193418 21.745902 0 0 0
65 2 0 0.511084 2.354439 21.928268 0 0 0
66 1 0 3.905917 2.516208 22.336055 0 0 0
67 1 0 2.542164 2.733185 22.608489 0 0 0
68 2 0 4.660719 2.89153 23.020688 0 0 0
69 2 0 0.930634 5.742384 23.22847 0 0 0
70 3 0 2.124052 3.433913 23.736332 0 0 0
71 1 0 1.774292 5.819486 23.910594 0 0 0
72 1 0 2.541855 4.68862 24.19003 0 0 0
73 2 0 1.434214 7.892860000000001 24.231846 0 0 0
74 2 0 4.92906 8.781874 24.287029000000004 0 0 0
75 2 0 2.701104 9.822246 24.361153000000005 0 0 0
76 1 0 2.061243 7.051753 24.510601000000005 0 0 0
77 1 0 3.593402 4.818898 25.099607000000002 0 0 0
78 2 0 4.188955 3.946711 25.354502 0 0 0
79 1 0 4.954999 8.891383 25.374040000000004 0 0 0
80 1 0 3.119078 7.203631 25.428823 0 0 0
81 1 0 2.657859 9.752821 25.450905 0 0 0
82 2 0 5.279921 9.912672 25.590651 0 0 0
83 1 0 3.878889 6.054697 25.702022 0 0 0
84 2 0 1.613731 9.617609 25.741497 0 0 0
85 2 0 5.711288 8.204059 25.758639 0 0 0
86 2 0 2.984837 10.715229 25.853541000000003 0 0 0
87 1 0 3.556188 8.59879 25.987356 0 0 0
88 2 0 4.719478 6.118469 26.387651000000005 0 0 0
89 1 0 3.548977 8.761852 27.543185 0 0 0
90 2 0 1.435628 8.357455 27.739936 0 0 0
91 2 0 5.632454 9.353645 27.778145 0 0 0
92 1 0 2.338243 8.686571 28.248915 0 0 0
93 1 0 4.666306 9.240991 28.25766 0 0 0
94 1 0 2.230851 9.141419 29.570349 0 0 0
95 1 0 4.560753 9.692873 29.57933 0 0 0
96 2 0 1.257127 9.159987 30.05408 0 0 0
97 2 0 5.425034 10.144589 30.059477 0 0 0
98 1 0 3.335872 9.658867 30.243893 0 0 0
99 3 0 3.139472 10.352585 31.436008 0 0 0
100 2 0 5.478086 9.343998 32.332243 0 0 0
101 1 0 3.440744 9.959606 32.733647 0 0 0
102 1 0 4.707096 9.460762 33.088196 0 0 0
103 2 0 1.498759 10.586661 33.479439 0 0 0
104 1 0 2.470272 10.166076 33.726889 0 0 0
105 1 0 4.998351 9.129812 34.420389 0 0 0
106 2 0 5.975286 8.745135 34.70294 0 0 0
107 1 0 2.775408 9.811616 35.039396 0 0 0
108 1 0 4.00116 9.304257 35.37579 0 0 0
109 1 0 1.9550039999999997 9.861959 36.277648 0 0 0
110 3 0 0.803126 10.235348 36.379175 0 0 0
111 1 0 3.988633 9.016948 36.834375 0 0 0
112 4 0 2.743831 9.358891 37.269537 0 0 0
113 3 0 4.895315 8.557824 37.501037 0 0 0
114 1 0 2.296256 9.178512 38.633627 0 0 0
115 2 0 2.935773 7.119578 38.775226 0 0 0
116 2 0 1.543694 11.195826 38.832059 0 0 0
117 1 0 2.45742 7.949736999999999 39.288468 0 0 0
118 1 0 1.676352 10.235672 39.31788 0 0 0
119 1 0 2.00164 7.778032 40.5981 0 0 0
120 1 0 1.221177 10.059874 40.619687 0 0 0
121 2 0 0.733581 10.882346 41.14263 0 0 0
122 3 0 0 5.77858 41.148777 0 0 0
123 1 0 1.382577 8.83633 41.260862 0 0 0
124 4 0 2.172563 6.527985 41.286148 0 0 0
125 1 0 1.153453 5.659383 41.517736 0 0 0
126 3 0 4.400528 6.756267 41.821392 0 0 0
127 1 0 3.349867 6.149755 41.845997 0 0 0
128 2 0 1.021113 8.707349 42.280693 0 0 0
129 1 0 1.735785 4.581699 42.352381 0 0 0
130 1 0 3.057995 4.876849 42.55495 0 0 0
131 2 0 0.096929 3.23064 42.748804 0 0 0
132 1 0 1.149122 3.451629 42.908604 0 0 0
133 1 0 3.877872 4.063638 43.329097 0 0 0
134 2 0 4.923081 4.313132 43.492983 0 0 0
135 1 0 1.9556529999999999 2.613277 43.689498 0 0 0
136 1 0 3.310019 2.917655 43.89892 0 0 0
137 3 0 1.413396 1.497438 44.253037 0 0 0
138 2 0 3.9273599999999997 2.264561 44.511623 0 0 0
139 2 0 7.934714 10.885871 0 0 0 0
140 1 0 8.80292 10.5398 0.554577 0 0 0
141 1 0 9.098144 9.182186 0.606896 0 0 0
142 2 0 13.09527 11.685799 0.855131 0 0 0
143 2 0 9.365398 12.511626 1.114361 0 0 0
144 2 0 11.416597 13.676489 1.131902 0 0 0
145 1 0 9.62914 11.462708 1.195403 0 0 0
146 1 0 10.208907 8.74544 1.321975 0 0 0
147 2 0 10.442101 7.684748 1.365648 0 0 0
148 1 0 10.769937 11.042944 1.904727 0 0 0
149 1 0 13.162384 11.757134 1.944151 0 0 0
150 1 0 11.030565 9.6672 1.9709140000000003 0 0 0
151 2 0 13.872132 12.556915 2.168369 0 0 0
152 1 0 11.431261 13.513452 2.212727 0 0 0
153 2 0 13.583143 10.822126 2.318697 0 0 0
154 2 0 11.893891 9.29971 2.518964 0 0 0
155 1 0 11.75983 12.036319 2.5560820000000004 0 0 0
156 2 0 10.460811 13.804374 2.623018 0 0 0
157 2 0 12.177489 14.188338 2.640007 0 0 0
158 1 0 11.75612 11.938459 4.097867 0 0 0
159 2 0 9.672639 11.364165 4.247811 0 0 0
160 2 0 13.803716 12.611415 4.363529 0 0 0
161 1 0 10.576646 11.628333 4.790136 0 0 0
162 1 0 12.877454 12.32296 4.849907 0 0 0
163 1 0 10.510699 11.733474 6.180686 0 0 0
164 1 0 12.810826 12.432875 6.237963 0 0 0
165 2 0 9.566407 11.559529 6.690322 0 0 0
166 2 0 13.668793 12.806767 6.79124 0 0 0
167 1 0 11.625372 12.145375 6.907318000000001 0 0 0
168 3 0 11.48449 12.510659 8.229992 0 0 0
169 2 0 13.659157 11.176523 9.03151 0 0 0
170 1 0 11.581622 11.691442 9.334833 0 0 0
171 1 0 12.803028 11.098334 9.697523 0 0 0
172 2 0 9.557436 12.147336 9.961868 0 0 0
173 1 0 10.488733 11.64062 10.20346 0 0 0
174 1 0 12.949219 10.473536 10.946381 0 0 0
175 2 0 13.90537 10.05774 11.254312 0 0 0
176 1 0 10.655352 11.003215 11.425831 0 0 0
177 1 0 11.851932 10.459378 11.806279000000002 0 0 0
178 1 0 9.72058 10.889367 12.562042 0 0 0
179 3 0 8.580652 11.311062 12.59872 0 0 0
180 1 0 11.713815 10.023831 13.226683000000001 0 0 0
181 4 0 10.447382 10.372663 13.595857000000002 0 0 0
182 3 0 12.592126 9.60266 13.952659 0 0 0
183 2 0 9.454638 12.569303 14.626794 0 0 0
184 1 0 10.000967 10.500293 14.965968 0 0 0
185 1 0 9.493135 11.749693 15.337346 0 0 0
186 2 0 10.540296 8.52023 15.678854 0 0 0
187 1 0 10.09193 9.478902 15.934948 0 0 0
188 1 0 9.029111 11.980701 16.618566 0 0 0
189 2 0 8.627106 12.951553 16.892654 0 0 0
190 1 0 9.636052 9.716113 17.248335 0 0 0
191 1 0 9.110144 10.978205 17.562526 0 0 0
192 3 0 12.136117 8.72089 18.190819 0 0 0
193 4 0 9.847836 8.83274 18.376739 0 0 0
194 2 0 8.7855 11.216605 18.571564 0 0 0
195 1 0 11.118216 8.713762 18.854543 0 0 0
196 3 0 7.7121759999999995 8.960094 19.230112 0 0 0
197 1 0 8.913658 8.836986 19.376444 0 0 0
198 1 0 11.009945 9.118694 20.279816 0 0 0
199 1 0 9.681945 9.243042 20.579878 0 0 0
200 2 0 13.04659 9.423628 20.919538 0 0 0
201 1 0 11.994328 9.538633 21.167092 0 0 0
202 1 0 9.255651 9.878166 21.745902 0 0 0
203 2 0 8.195832 10.039187 21.928268 0 0 0
204 1 0 11.590665 10.200956 22.336055 0 0 0
205 1 0 10.226912 10.417933 22.608489 0 0 0
206 2 0 12.345467 10.576278 23.020688 0 0 0
207 2 0 8.615382 13.427132 23.22847 0 0 0
208 3 0 9.8088 11.118661 23.736332 0 0 0
209 1 0 9.45904 13.504234 23.910594 0 0 0
210 1 0 10.226603 12.373368 24.19003 0 0 0
211 2 0 9.118962 0.20811099999999977 24.231846 0 1 0
212 2 0 12.613808 1.0971250000000001 24.287029000000004 0 1 0
213 2 0 10.385852 2.137496999999999 24.361153000000005 0 1 0
214 1 0 9.745991 14.736501 24.510601000000005 0 0 0
215 1 0 11.27815 12.503646 25.099607000000002 0 0 0
216 2 0 11.873703 11.631459 25.354502 0 0 0
217 1 0 12.639747 1.2066339999999982 25.374040000000004 0 1 0
218 1 0 10.803826 14.888379 25.428823 0 0 0
219 1 0 10.342607 2.0680719999999986 25.450905 0 1 0
220 2 0 12.964669 2.2279229999999974 25.590651 0 1 0
221 1 0 11.563637 13.739445 25.702022 0 0 0
222 2 0 9.298479 1.9328600000000007 25.741497 0 1 0
223 2 0 13.396036 0.5193099999999988 25.758639 0 1 0
224 2 0 10.669585 3.0304799999999976 25.853541000000003 0 1 0
225 1 0 11.240936 0.9140410000000008 25.987356 0 1 0
226 2 0 12.404226 13.803217 26.387651000000005 0 0 0
227 1 0 11.233725 1.0771030000000006 27.543185 0 1 0
228 2 0 9.120376 0.6727060000000015 27.739936 0 1 0
229 2 0 13.317202 1.6688959999999977 27.778145 0 1 0
230 1 0 10.022991 1.0018219999999973 28.248915 0 1 0
231 1 0 12.351054 1.5562420000000006 28.25766 0 1 0
232 1 0 9.915599 1.4566700000000015 29.570349 0 1 0
233 1 0 12.245501 2.008124000000002 29.57933 0 1 0
234 2 0 8.941875 1.475237999999998 30.05408 0 1 0
235 2 0 13.109782 2.459839999999998 30.059477 0 1 0
236 1 0 11.02062 1.9741179999999985 30.243893 0 1 0
237 3 0 10.82422 2.667836 31.436008 0 1 0
238 2 0 13.162834 1.6592489999999995 32.332243 0 1 0
239 1 0 11.125492 2.2748569999999986 32.733647 0 1 0
240 1 0 12.391844 1.7760129999999996 33.088196 0 1 0
241 2 0 9.183507 2.9019119999999963 33.479439 0 1 0
242 1 0 10.15502 2.4813269999999985 33.726889 0 1 0
243 1 0 12.683099 1.4450629999999989 34.420389 0 1 0
244 2 0 13.660034 1.0603860000000007 34.70294 0 1 0
245 1 0 10.460156 2.126866999999998 35.039396 0 1 0
246 1 0 11.685908 1.619507999999999 35.37579 0 1 0
247 1 0 9.639752 2.177209999999999 36.277648 0 1 0
248 3 0 8.487874 2.550598999999999 36.379175 0 1 0
249 1 0 11.673381 1.3321989999999981 36.834375 0 1 0
250 4 0 10.428579 1.6741419999999994 37.269537 0 1 0
251 3 0 12.580063 0.8730749999999967 37.501037 0 1 0
252 1 0 9.981004 1.4937629999999995 38.633627 0 1 0
253 2 0 10.620521 14.804326 38.775226 0 0 0
254 2 0 9.228442 3.5110769999999976 38.832059 0 1 0
255 1 0 10.142168 0.26498800000000045 39.288468 0 1 0
256 1 0 9.3611 2.5509230000000005 39.31788 0 1 0
257 1 0 9.686388 0.09328300000000095 40.5981 0 1 0
258 1 0 8.905925 2.375124999999997 40.619687 0 1 0
259 2 0 8.418329 3.1975969999999996 41.14263 0 1 0
260 3 0 7.684748 13.463328 41.148777 0 0 0
261 1 0 9.067325 1.1515809999999975 41.260862 0 1 0
262 4 0 9.857311 14.212733 41.286148 0 0 0
263 1 0 8.838201 13.344131 41.517736 0 0 0
264 3 0 12.085276 14.441015 41.821392 0 0 0
265 1 0 11.034615 13.834503 41.845997 0 0 0
266 2 0 8.705861 1.0226000000000004 42.280693 0 1 0
267 1 0 9.420533 12.266447 42.352381 0 0 0
268 1 0 10.742743 12.561597 42.55495 0 0 0
269 2 0 7.781676999999999 10.915388 42.748804 0 0 0
270 1 0 8.83387 11.136377 42.908604 0 0 0
271 1 0 11.56262 11.748386 43.329097 0 0 0
272 2 0 12.607829 11.99788 43.492983 0 0 0
273 1 0 9.640401 10.298025 43.689498 0 0 0
274 1 0 10.994767 10.602403 43.89892 0 0 0
275 3 0 9.098144 9.182186 44.253037 0 0 0
276 2 0 11.612108 9.949309 44.511623 0 0 0

Velocities

1 0 0 0
2 0 0 0
3 0 0 0
4 0 0 0
5 0 0 0
6 0 0 0
7 0 0 0
8 0 0 0
9 0 0 0
10 0 0 0
11 0 0 0
12 0 0 0
13 0 0 0
14 0 0 0
15 0 0 0
16 0 0 0
17 0 0 0
18 0 0 0
19 0 0 0
20 0 0 0
21 0 0 0
22 0 0 0
23 0 0 0
24 0 0 0
25 0 0 0
26 0 0 0
27 0 0 0
28 0 0 0
29 0 0 0
30 0 0 0
31 0 0 0
32 0 0 0
33 0 0 0
34 0 0 0
35 0 0 0
36 0 0 0
37 0 0 0
38 0 0 0
39 0 0 0
40 0 0 0
41 0 0 0
42 0 0 0
43 0 0 0
44 0 0 0
45 0 0 0
46 0 0 0
47 0 0 0
48 0 0 0
49 0 0 0
50 0 0 0
51 0 0 0
52 0 0 0
53 0 0 0
54 0 0 0
55 0 0 0
56 0 0 0
57 0 0 0
58 0 0 0
59 0 0 0
60 0 0 0
61 0 0 0
62 0 0 0
63 0 0 0
64 0 0 0
65 0 0 0
66 0 0 0
67 0 0 0
68 0 0 0
69 0 0 0
70 0 0 0
71 0 0 0
72 0 0 0
73 0 0 0
74 0 0 0
75 0 0 0
76 0 0 0
77 0 0 0
78 0 0 0
79 0 0 0
80 0 0 0
81 0 0 0
82 0 0 0
83 0 0 0
84 0 0 0
85 0 0 0
86 0 0 0
87 0 0 0
88 0 0 0
89 0 0 0
90 0 0 0
91 0 0 0
92 0 0 0
93 0 0 0
94 0 0 0
95 0 0 0
96 0 0 0
97 0 0 0
98 0 0 0
99 0 0 0
100 0 0 0
101 0 0 0
102 0 0 0
103 0 0 0
104 0 0 0
105 0 0 0
106 0 0 0
107 0 0 0
108 0 0 0
109 0 0 0
110 0 0 0
111 0 0 0
112 0 0 0
113 0 0 0
114 0 0 0
115 0 0 0
116 0 0 0
117 0 0 0
118 0 0 0
119 0 0 0
120 0 0 0
121 0 0 0
122 0 0 0
123 0 0 0
124 0 0 0
125 0 0 0
126 0 0 0
127 0 0 0
128 0 0 0
129 0 0 0
130 0 0 0
131 0 0 0
132 0 0 0
133 0 0 0
134 0 0 0
135 0 0 0
136 0 0 0
137 0 0 0
138 0 0 0
139 0 0 0
140 0 0 0
141 0 0 0
142 0 0 0
143 0 0 0
144 0 0 0
145 0 0 0
146 0 0 0
147 0 0 0
148 0 0 0
149 0 0 0
150 0 0 0
151 0 0 0
152 0 0 0
153 0 0 0
154 0 0 0
155 0 0 0
156 0 0 0
157 0 0 0
158 0 0 0
159 0 0 0
160 0 0 0
161 0 0 0
162 0 0 0
163 0 0 0
164 0 0 0
165 0 0 0
166 0 0 0
167 0 0 0
168 0 0 0
169 0 0 0
170 0 0 0
171 0 0 0
172 0 0 0
173 0 0 0
174 0 0 0
175 0 0 0
176 0 0 0
177 0 0 0
178 0 0 0
179 0 0 0
180 0 0 0
181 0 0 0
182 0 0 0
183 0 0 0
184 0 0 0
185 0 0 0
186 0 0 0
187 0 0 0
188 0 0 0
189 0 0 0
190 0 0 0
191 0 0 0
192 0 0 0
193 0 0 0
194 0 0 0
195 0 0 0
196 0 0 0
197 0 0 0
198 0 0 0
199 0 0 0
200 0 0 0
201 0 0 0
202 0 0 0
203 0 0 0
204 0 0 0
205 0 0 0
206 0 0 0
207 0 0 0
208 0 0 0
209 0 0 0
210 0 0 0
211 0 0 0
212 0 0 0
213 0 0 0
214 0 0 0
215 0 0 0
216 0 0 0
217 0 0 0
218 0 0 0
219 0 0 0
220 0 0 0
221 0 0 0
222 0 0 0
223 0 0 0
224 0 0 0
225 0 0 0
226 0 0 0
227 0 0 0
228 0 0 0
229 0 0 0
230 0 0 0
231 0 0 0
232 0 0 0
233 0 0 0
234 0 0 0
235 0 0 0
236 0 0 0
237 0 0 0
238 0 0 0
239 0 0 0
240 0 0 0
241 0 0 0
242 0 0 0
243 0 0 0
244 0 0 0
245 0 0 0
246 0 0 0
247 0 0 0
248 0 0 0
249 0 0 0
250 0 0 0
251 0 0 0
252 0 0 0
253 0 0 0
254 0 0 0
255 0 0 0
256 0 0 0
257 0 0 0
258 0 0 0
259 0 0 0
260 0 0 0
261 0 0 0
262 0 0 0
263 0 0 0
264 0 0 0
265 0 0 0
266 0 0 0
267 0 0 0
268 0 0 0
269 0 0 0
270 0 0 0
271 0 0 0
272 0 0 0
273 0 0 0
274 0 0 0
275 0 0 0
276 0 0 0
