LAMMPS data file via write_data, version 2 Aug 2023, timestep = 0, units = real

276 atoms
4 atom types

2.317562696757374 13.051934303244053 xlo xhi
2.317562696757374 13.051934303244053 ylo yhi
6.807575719733187 38.33856628026242 zlo zhi
0 0 0 xy xz yz

Masses

1 12.0107
2 1.00794
3 15.999
4 14

Atoms # charge

5 2 0.1543039355423348 9.035977792348142 6.580339154808373 10.265706762160516 0 0 0
7 1 -0.1002081189806358 9.643260776215737 6.308180401044691 9.369549193462165 0 0 0
10 1 -0.0101751468900829 10.98043573507429 6.864093324732499 9.184619301400733 0 0 0
15 2 0.1352434332323205 2.6645183249292312 6.733702301341689 10.522432232333552 1 0 0
139 2 0.1484807992482078 11.48298462131883 3.1153171442599525 9.238330636436615 0 1 0
140 1 -0.1503480301249263 12.217090549548992 2.4985739030053447 8.79914137371749 0 1 0
143 2 0.1294068047537033 3.195432217678256 3.3413970115889757 9.857400622381146 1 1 0
145 1 -0.1164828975866775 2.831884073671826 2.626033112154544 9.135729800233957 1 1 0
158 1 -0.02596221063804171 5.6783638016565625 3.0266832396486594 9.654001733931725 1 1 0
160 2 0.1368290157991649 4.853704996583032 3.9735896368557135 7.820250724471831 1 1 0
162 1 -0.1054125799751296 5.407633929226522 4.144797194559475 8.79923957564623 1 1 0
164 1 -0.1640755705585582 5.683412653732455 5.523679107045972 9.135544019709965 1 1 0
166 2 0.1708257020103967 5.434321428833291 6.31864953211586 8.468600534446947 1 1 0
161 1 -0.1145680350494612 6.3878811973477285 3.3883793003203597 10.893482339177442 1 1 0
167 1 0.2263543622076395 6.243576302807501 5.793579275268936 10.403391469636363 1 1 0
163 1 -0.1529498545666997 6.553993520137131 4.715160054271671 11.31914866086461 1 1 0
168 3 -0.5199932557387708 6.444567014221888 7.101001640259238 10.847853714517282 1 1 0
170 1 0.2562805954811693 5.9612462803829835 7.404660138711011 12.031279925624904 1 1 0
159 2 0.1257615583011181 6.622189396114813 2.561549808662436 11.52037749617424 1 1 0
165 2 0.170748067970333 7.000165838266497 4.948110979688575 12.279851109777308 1 1 0
2 1 -0.1642834011239507 9.08360080523001 5.3742969537397665 8.455998769200376 0 0 0
1 2 0.1544287560564386 8.054895974129408 5.006373890820715 8.661376088792847 0 0 0
23 1 -0.1024942822145726 11.055916600513715 6.9716250356260305 12.341829865893349 0 0 0
172 2 0.164065290163686 4.593633318470747 5.698242370420109 12.274283460722668 1 1 0
21 2 0.1425023554715824 11.630541828633897 6.114444957938938 12.18265465713355 0 0 0
12 1 -0.1069010724210369 11.722467570401754 6.322030912067192 8.037979130071404 0 0 0
16 2 0.1369292194653457 12.691082039831388 6.701044791536603 7.708413322922049 0 0 0
3 1 0.2665834167818534 9.791868574895933 4.950370136129974 7.293587894657025 0 0 0
8 1 -0.118538752848346 11.173334977962906 5.405203951241358 7.107830904775689 0 0 0
173 1 -0.1475152599458099 4.85565069730143 6.672462881814376 12.653476034664042 1 1 0
131 2 0.1810303549906174 7.786587343494843 6.513844550113152 7.121607126833964 0 0 1
25 1 -0.1502226494080087 10.473354845010329 7.1242168528718866 13.644033065153703 0 0 0
176 1 -0.03037485448100255 4.285721772040109 7.163027760397146 13.870517522102446 1 1 0
34 2 0.1667532283976763 8.001902640061484 6.51785329163157 14.37003601113003 0 0 0
179 3 -0.4692089565387501 2.811708895664992 5.393564534109855 14.657036467055942 1 1 0
27 2 0.1767848430863637 10.550413791259192 6.333400105735024 14.326279917784571 0 0 0
32 1 0.2457573460415666 9.019976033693428 7.597498221659505 16.096002360938268 0 0 0
33 1 -0.1472289520445899 9.387050642036282 7.508598667769509 17.498893233973003 0 0 0
35 1 -0.1233834644392404 8.276685780938049 6.509355659187605 15.459293723941725 0 0 0
36 1 -0.06793221437358368 8.868681519568305 6.582170344479691 18.42799099108968 0 0 0
38 1 -0.01882227803412791 7.792560331120394 5.5771125008476705 16.400711510705086 0 0 0
39 1 -0.04473849893216189 7.99853847904374 5.532978652851741 17.904028456616864 0 0 0
42 1 0.3991938192498924 7.351794937269773 4.319549972848426 18.497298908537868 0 0 0
43 4 -0.4219574181621299 6.630587217626125 3.546358183497608 17.336088910735903 0 0 0
40 1 0.4116681612980869 6.891174499722606 4.356024459461548 16.026466933344096 0 0 0
41 3 -0.4646760110638058 6.493113281528754 4.1275898661860095 14.93147857246779 0 0 0
45 2 0.2057204775122791 4.383393976173616 3.31839123224377 15.810700392965199 0 0 0
46 1 0.1745745924053044 5.397802439391803 2.733672310543423 17.616257869369747 0 0 0
47 1 -0.1154337260782602 4.328224677475722 2.7135724842369746 16.69292304601524 0 0 0
178 1 0.409481745050459 3.2437220727865332 6.509719164405465 14.811657536445512 1 1 0
184 1 0.1806366373848467 12.882396366864823 7.1184459552042725 17.083165491788026 0 1 0
187 1 -0.1527126603015637 12.050347731446296 5.97873384306658 17.258042096134844 0 1 0
181 4 -0.4314733776377585 3.1318476795644803 7.392243085428615 16.0348303859031 1 1 0
190 1 0.1727730299754495 11.432032809790448 5.524903155568989 18.490890892646625 0 1 0
186 2 0.222193164450109 12.088798552539716 5.189489667976931 16.490047197447296 0 1 0
193 4 -0.4525363706583604 10.81403088037701 4.163728007348629 18.630043072136854 0 1 0
192 3 -0.4637001791074115 10.23955078441324 3.4377812645646455 16.301240835277223 0 1 0
195 1 0.4078292098939363 10.20551319598287 3.296367327726813 17.464045312504112 0 1 0
220 2 0.1626108876946288 4.143001733065189 4.715735473169007 19.12918932729633 0 0 0
226 2 0.1477627979225681 4.5169148797640855 7.567039812980862 19.22847596937679 0 0 0
37 2 0.1622428008096714 9.149270476644674 6.596261726437991 19.45108988460933 0 0 0
212 2 0.1550133171365681 2.989573676377387 5.947137824745257 19.663569071877728 0 0 0
44 3 -0.4672645856232933 7.459299947281092 3.9987276077731138 19.639643622494624 0 0 0
188 1 -0.1168859037615466 12.232408940243609 7.622618806381135 19.467367337480567 0 1 0
191 1 -0.1527026646087722 11.557112089434906 6.3627687090446265 19.61906289572802 0 1 0
197 1 0.4277216930078899 10.284565205063082 3.4502698664283726 19.91079533862576 0 1 0
194 2 0.1677831317989839 11.158890277386078 6.069513127852899 20.59828147426129 0 1 0
196 3 -0.4696648269310843 10.559989046197812 3.632241556585004 21.056475769217315 0 1 0
224 2 0.193286349217491 5.8377698085463745 3.569231959416106 21.305260032407794 0 0 0
207 2 0.1589823970050513 8.657152605848395 7.336918466696085 22.10701571885992 0 0 0
209 1 -0.1361844530363645 7.783059571947527 7.4225688781660315 21.443013574809633 0 0 0
214 1 -0.09127972065600676 6.785120721177911 6.480894281613765 21.602270885135 0 0 0
221 1 -0.09630853786626949 5.434668062127463 7.475071162494656 19.79504164793883 0 0 0
218 1 -0.01469490465591512 5.527535289593025 6.4658760844874905 20.81334670161487 0 0 0
211 2 0.1310575735050097 6.891481981734077 5.68388817112291 22.363290553543553 0 0 0
225 1 0.009596474808012713 4.5124429847400656 5.481785060368367 21.142592450597373 0 0 0
217 1 -0.3118580069345981 3.562564848699682 5.023645841876219 19.957115646282325 0 0 0
222 2 0.1422886509604602 4.1527982240956325 3.4566394903067534 22.09118043778591 0 0 0
219 1 -0.3036663289537355 4.971195179354956 4.089115324950945 21.856373484459034 0 0 0
227 1 -0.01452480532945975 3.585754142362024 6.047731317150236 22.214447086084874 0 0 0
223 2 0.1615762211129837 2.940105528696834 4.237193722044525 20.16782123344268 0 0 0
229 2 0.1455823442550205 12.981302824592184 4.312955045515108 22.340540003041873 -1 0 0
213 2 0.1290381623323613 5.499714424802006 4.2386159844723705 22.78948922586425 0 0 0
230 1 -0.1002332962856813 3.797322727980612 7.359684347574509 22.79169873526778 0 0 0
231 1 -0.1094712959292471 2.4681247705708973 5.326352330533477 22.72536751439722 0 0 0
236 1 0.2477375578383961 12.682993952961207 7.137569901045679 24.384147102198302 -1 0 0
233 1 -0.1440263347320379 12.39911619398742 5.888546204489781 23.781250830488997 -1 0 0
235 2 0.1512051629580119 11.567213104916185 5.296639922556995 24.146637341913223 -1 0 0
237 3 -0.5067997800732005 12.075603681160057 7.516001709636141 25.572147257914672 -1 0 0
96 2 0.158129264223201 8.343027661497175 6.292445899609097 28.43329511187859 -1 0 0
77 1 -0.1707835854163317 12.86619924242017 2.4993785685864323 27.321604234874755 -1 0 0
90 2 0.1318611455048526 10.892616147797932 6.324143928556361 28.453276880087273 -1 0 0
83 1 -0.1077195741787483 12.297178945097523 3.3679002267176186 28.332577117493024 -1 0 0
88 2 0.1213136924092431 11.29434287388467 3.8030920967018504 28.11425162960824 -1 0 0
76 1 -0.08465727669144046 3.586621855386233 3.198759901184056 29.67154274616179 0 0 0
80 1 -0.007240551146651408 12.998868304212136 3.798571636094402 29.537509055743456 -1 0 0
92 1 -0.1150794968015431 10.28511878509323 5.7180930314814455 29.205971152653273 -1 0 0
94 1 -0.1625760106690125 8.881824535221268 5.752859850671783 29.219109824680462 -1 0 0
87 1 0.008754160937573835 12.49237078460517 4.8675774877321665 30.440303886841473 -1 0 0
89 1 -0.01177013178798732 10.986831478338532 5.030780694149996 30.298529711543058 -1 0 0
98 1 0.2425106028198256 8.02247840192701 5.1937480715981685 30.254421394092486 -1 0 0
81 1 -0.3003626948012298 2.507156091399291 6.191592584421583 30.030915248497877 0 0 0
75 2 0.1526160032133717 2.36381976599039 6.430936749713044 28.983793917374907 0 0 0
86 2 0.1498702557263511 3.5995469132616247 6.1703697453938755 30.290522431808082 0 0 0
103 2 0.1722530926251305 8.65642640752596 7.618736206239754 30.259328718541646 -1 0 0
73 2 0.1421274603663675 4.141667832957612 3.404981755268957 30.59106700583479 0 0 0
99 3 -0.4996073109847701 6.80271972971327 5.678214787049199 30.566299393818692 -1 0 0
84 2 0.1606123509349886 12.863316278878681 7.075844499541498 30.60937806993789 -1 0 0
93 1 -0.1030560757207995 10.164761485458605 4.460355381695516 31.340642217283264 -1 0 0
95 1 -0.1337381048148843 8.729220531881365 4.4587915400413305 31.274145257029737 -1 0 0
104 1 -0.1119120078937348 8.25577322503689 7.403492134752606 31.2850683687289 -1 0 0
101 1 0.2386437414269085 7.021125088709261 6.671518933997966 31.513773987023193 -1 0 0
79 1 -0.2955901406593741 12.838022266826366 4.781266175655676 31.985503805616172 -1 0 0
97 2 0.160974436565578 8.175992211527769 3.993171286094653 32.15353485017201 -1 0 0
85 2 0.1593273290276998 12.793724655770351 3.6856999578344647 32.31787956479603 -1 0 0
74 2 0.1311153129162429 3.1999462640173215 5.028234825450076 32.20723761680013 0 0 0
91 2 0.1732403373363944 10.621722017398266 3.962678834513686 32.21835060291821 -1 0 0
82 2 0.1634455991470955 12.196875901710492 5.528845742110898 32.51927552052909 -1 0 0
137 3 -0.47366338456999 9.159085826532088 4.292366157713625 37.80616701239603 0 0 0
132 1 -0.1202045067743777 7.283895211800345 5.7631148170432756 37.96816587574044 0 0 0
135 1 0.2705717589512189 7.867009619202086 4.5063183684771975 37.5946222021021 0 0 0
100 2 0.1451620183138001 5.456864343387465 6.03575964932771 32.84399739493582 -1 0 0
102 1 -0.1425562778910534 6.435824190325896 6.521709845722365 32.78504982861257 -1 0 0
105 1 -0.05190380858525015 7.101182623794298 6.978825520518518 33.98702880522151 -1 0 0
9 2 0.1799478296121854 11.72191599728028 5.021643020580866 37.784002160702826 0 0 -1
108 1 -0.04157558159830176 8.406416344204072 7.534769116313839 33.9643128246651 -1 0 0
106 2 0.1616488813153802 6.551135476582891 6.8376140641707215 34.954808418233014 -1 0 0
138 2 0.1629895462147087 7.734466477482196 2.649857266543262 36.42968902531718 0 0 0
113 3 -0.4385754285691074 9.357287829862019 7.603300851212962 36.112938518623054 -1 0 0
124 4 -0.4653290013966258 3.8690218500847244 7.178335481503238 36.67999183799507 0 0 0
125 1 0.3924757789936003 5.143054913433053 7.373662614488992 37.528756871057695 0 0 0
127 1 0.3906948416092549 3.9483618625588552 5.716839519597366 36.142909682192794 0 0 0
129 1 -0.06246524747107103 6.0070623943803625 6.057615437998833 37.43356850065223 0 0 0
130 1 -0.07403858252328613 5.247625991546151 5.058261287135732 36.63859336707823 0 0 0
136 1 -0.1387515901188362 7.215391992025415 3.5900685517690474 36.70834481679495 0 0 0
133 1 -0.1089735472048066 5.856650005912142 3.783897936222819 36.25660050137843 0 0 0
134 2 0.1314122349086847 5.407483489025033 3.0539504593533544 35.580363866020605 0 0 0
126 3 -0.4813093592713468 3.1822215786530204 5.138152066154424 35.45496704006257 0 0 0
115 2 0.2020975101842446 11.996586935845807 7.2210016164731785 35.958717206168814 -1 0 0
20 1 -0.01349655273350239 10.92441603448217 8.022177792155784 11.358247240025218 0 0 0
24 1 -0.1165487789736403 10.310763894898933 9.250133076216606 11.801287748617469 0 0 0
153 2 0.1143830070648755 6.604532626774798 11.514209812957013 10.550628257290906 1 0 0
22 2 0.1109642747629698 10.27601433272709 10.14256249844053 11.143847605599529 0 0 0
17 1 0.00983856835578383 11.59095904160776 7.929014763393738 10.035829919153752 0 0 0
18 2 0.13727555502699 10.40336785016195 9.573847185188644 9.00735523276759 0 0 0
11 1 -0.3084690186418463 2.4492445604325104 7.740666660089462 10.147616796639873 1 0 0
14 1 -0.293884087860029 11.502353195768746 9.295511504086452 9.227223623517485 0 0 0
4 2 0.1339550395921454 2.9986509677555464 7.9967375658900135 9.208689784504788 1 0 0
6 2 0.1440201330753994 11.979316504422718 9.203970662318923 8.211487550320825 0 0 0
13 2 0.1432725735826343 2.756608998908131 8.478604418510855 10.893811110848429 1 0 0
19 2 0.1349597358738259 11.871774461924343 10.142628264852089 9.82939861234486 0 0 0
142 2 0.13330892335074 4.7580319422463315 11.247506461639803 10.826752168285104 1 0 0
149 1 -0.3091519920196042 5.560381244985902 11.272846952213612 10.062687192866933 1 0 0
155 1 0.01361525140440445 5.279650222738763 12.501984727331063 9.041521330500178 1 0 0
148 1 -0.01462890354182967 3.8341301568950423 12.411705387236536 8.573263365563413 1 0 0
141 1 0.2561073737026487 11.806260605866138 12.29014565273646 7.740791021959358 0 0 0
275 3 -0.5138974426276373 10.488102024908224 12.050887971099925 7.51209605034212 0 0 1
151 2 0.1434606014565115 5.598807620059256 10.279362790977093 9.5848355224758 1 0 0
169 2 0.1356573749126887 7.158050994628913 9.225329819633885 11.9863425851381 1 1 0
152 1 -0.3103499371986755 6.191723797780098 12.203335323983698 7.779172611506443 1 0 0
144 2 0.1551550666629447 7.198244235595479 12.612327606025177 7.975473463746511 1 0 0
276 2 0.1437130687955555 8.619672061302651 10.02765067702159 7.4240406083867985 0 0 1
156 2 0.1380503762776243 6.331425537653645 11.18381804529619 7.5222216301245 1 0 0
171 1 -0.1511984361166284 6.399118438812435 8.665805923219658 12.604176481075063 1 1 0
150 1 -0.1150481270761602 3.3854876239686513 11.557842514596855 7.529557287483598 1 0 0
146 1 -0.1656654046839889 12.769932105269255 11.50046026383219 7.071187841885138 0 0 0
26 1 -0.1407315217829599 9.635442141092202 9.280315100678688 13.056331716526294 0 0 0
154 2 0.13523559895039 4.071130674925745 10.86908241746855 7.028115367617031 1 0 0
157 2 0.1294844867220179 5.692254981883536 12.589905750582572 6.8387611482202155 1 0 0
28 2 0.1327907314049532 9.064212190192135 10.208039351155234 13.323998672203302 0 0 0
29 1 0.2606052432574341 9.724652582996086 8.294159595656854 14.112654798806972 0 0 0
174 1 -0.08584125538088652 5.9103227156181966 9.132822660908642 13.851217927713416 1 1 0
175 2 0.144219541187752 6.313927549774752 10.048535365228668 14.264781465273309 1 1 0
177 1 -0.05194959256654005 4.8506252752136065 8.3962588113279 14.513216743787472 1 1 0
30 3 -0.518683517648261 9.362254966453296 8.664470817903645 15.323965857329357 0 0 0
31 2 0.1676352384442057 9.982556901325975 8.316018305369484 17.847358215743817 0 0 0
183 2 0.1754982851203916 2.514625216595652 9.033923113732492 18.25430277094567 1 1 0
185 1 -0.1354687730699162 12.810920438452026 8.000640257834853 18.247389267136697 0 1 0
180 1 0.3894369870259385 4.280239428442512 8.599943390464244 15.921147496645329 1 1 0
182 3 -0.4710626365028487 4.569899182313387 9.44303065962103 16.692723385699843 1 1 0
51 2 0.1566580857587917 12.972890034130815 12.710922571732809 16.20542781646749 -1 -1 0
50 1 -0.0744607974850667 3.075677051718157 12.787535572467492 16.952414415852047 0 -1 0
49 1 -0.1464437253863058 5.195189483472964 12.742614377336949 18.835367960251947 0 -1 0
53 1 -0.1102608985431607 2.892372691095956 12.222714299013374 18.254122599297617 0 -1 0
56 2 0.1837290224105669 12.66251366888088 11.746668962536889 18.41944556129038 -1 -1 0
198 1 -0.03174738685075786 9.468944750864772 12.815476415103811 18.035625194677753 0 0 0
200 2 0.1644033362772421 8.768210466140362 11.47354257160209 16.36489356335547 0 0 0
201 1 -0.04429831754164968 8.839996533322925 11.638241694062435 17.45810587396023 0 0 0
206 2 0.1578781419314653 8.129938690408776 9.634091203617185 17.89137500689863 0 0 0
204 1 -0.1519764042599173 8.438447656869723 10.606469246688018 18.29487950701725 0 0 0
52 1 0.1689909999873661 3.9449554715201485 12.133415835136807 19.227166541275587 0 -1 0
216 2 0.1762134551020068 6.202638566994807 9.428740476483771 19.114734940232417 0 0 0
48 2 0.2165266171372092 5.995693845820007 12.537871053075389 19.53020305069697 0 -1 0
199 1 -0.002885649328547225 9.506651025947576 12.954390893290183 19.51711144853836 0 0 0
189 2 0.157715992328054 12.332869195615492 8.31246327649581 20.256942678766713 0 1 0
205 1 0.2392053741811446 8.503185857674879 10.647093835885052 19.747281938708674 0 0 0
54 3 -0.471177448387146 12.02137945766551 11.174968747070162 20.68192765477957 -1 -1 0
55 4 -0.4517576932956844 3.80295982339618 11.502039332532114 20.56353482524156 0 -1 0
215 1 -0.1445994557997294 6.407673848249136 8.524838411892635 19.7278344286113 0 0 0
202 1 -0.0602968184361236 9.029988227838974 11.80572454277077 20.324600279558304 0 0 0
203 2 0.2028903184244496 9.089128885018425 11.825093254332483 21.460307719396305 0 0 0
208 3 -0.4841236229043032 8.53210340788193 9.514591036001185 20.59718521547145 0 0 0
57 1 0.3923771990546633 2.328581354763861 11.347045830203223 21.185547824918178 0 -1 0
59 1 0.3704584117348244 4.7524570123987 11.661029682085102 21.776388638846647 0 -1 0
58 3 -0.4493113436350692 5.95733836409179 11.569491785041732 21.792470068322892 0 -1 0
228 2 0.1522426900688207 4.629434844898834 7.991680785800744 22.394935049532698 0 0 0
210 1 0.2680061853247324 7.607939161616425 8.58608300335942 20.552322434819445 0 0 0
60 1 -0.05888939796769723 2.5170181930008133 11.341322111953842 22.714238529135084 0 -1 0
61 1 -0.06034683128627936 3.945990253042524 11.59677928242539 23.07116055487886 0 -1 0
64 1 -0.1183742020053305 4.368958055331838 11.49590878107062 24.46270111658989 0 -1 0
65 2 0.1805682372086659 5.431222586657037 11.567936460453781 24.758908104942993 0 -1 0
63 1 -0.08421554991897973 12.316367166196882 11.216635250190016 23.799145082730487 -1 -1 0
62 2 0.1572688685500517 11.312001752789895 11.1095967964941 23.468074294954192 -1 -1 0
234 2 0.1672756750613319 3.182071255234915 8.929101643516008 24.144275016649317 0 0 0
232 1 -0.1597338673544834 2.9935826312880396 7.949116720612489 23.820893757019377 0 0 0
66 1 -0.1697500288376944 12.735761671639303 11.198782290870549 25.158860706186836 -1 -1 0
67 1 0.2421607401624629 3.3837387152745233 11.465314560813455 25.47534111094452 0 -1 0
68 2 0.1309162130706912 12.003180454905245 11.13245444380514 25.968858264332436 -1 -1 0
241 2 0.1702975545762798 4.15392767275718 7.811878528328888 25.85178984607577 0 0 0
78 2 0.1253774243105157 12.283991160280289 12.98587330466363 26.44555104006371 -1 -1 0
70 3 -0.4885983313721852 3.950837768443942 11.724305022998733 26.71155385034781 0 -1 0
69 2 0.1824629215092237 5.157797426205942 12.595475997546862 28.930571395128556 0 -1 0
72 1 0.2690569894302481 3.412873901005071 12.6066823570958 27.56136398566668 0 -1 0
71 1 -0.1129403121350407 4.153558594875914 13.03013945838239 28.752871873685176 0 -1 0
239 1 0.2583310308269631 12.760796293806944 8.198659532743651 26.48364807941527 -1 0 0
238 2 0.1442507704878012 10.881525912905138 8.965230638739861 27.459520472251118 -1 0 0
240 1 -0.1585910343235404 11.962900411877396 8.880516387600274 27.54344992740053 -1 0 0
245 1 -0.01769878116872523 4.044765553654232 8.860055711634356 27.75280886761817 0 0 0
242 1 -0.1436789470340207 3.4603322617367605 8.230195609979951 26.61978367359235 0 0 0
248 3 -0.4509898438950032 6.395870535328295 8.89553560840393 27.198204831077874 0 0 0
247 1 0.4172135214537803 5.5263800404100065 9.234452859083774 27.978429906917622 0 0 0
243 1 -0.08521958608719923 12.536101081931275 9.482270696726475 28.649838961042068 -1 0 0
246 1 -0.04398206148126842 3.236575295272482 9.518813513806261 28.84839371538709 0 0 0
254 2 0.1590262179268656 7.584765365169584 11.247774996478809 27.866856294763572 0 0 0
250 4 -0.4290671301661293 5.574991400698435 10.122460650550703 29.205909018866397 0 0 0
256 1 -0.1187860084819803 7.8481026926150435 11.249439367765465 28.942771745367445 0 0 0
259 2 0.1112299010606778 9.853967244486316 12.126783851857951 28.769371628934334 0 0 0
249 1 0.3950041492400359 4.128189808645892 10.179757070266032 29.874190970792117 0 0 0
252 1 0.1741763099933991 6.8567882797330615 10.688272072581784 29.814212604910537 0 0 0
258 1 -0.1132014308133854 9.105871196650188 11.741232578709946 29.419349569753145 0 0 0
244 2 0.1623812443377465 11.86655428411812 9.963650637010492 29.38812758814474 -1 0 0
261 1 -0.1001742849917974 9.24132609282207 11.784011774683485 30.864810523165502 0 0 0
255 1 -0.1470345513737046 7.063553687283887 10.761821042484787 31.209241730722532 0 0 0
251 3 -0.4467108127831114 3.8051710817604567 10.69990875076042 30.908179595172477 0 0 0
266 2 0.1838019271412837 10.23071666515915 12.055021199410707 31.147019281071117 0 0 0
257 1 0.1872919421106594 8.227801960863054 11.336166740398651 31.803287893379817 0 0 0
253 2 0.2276723769443403 6.363484473780597 10.36538659717732 31.895686560657595 0 0 0
110 3 -0.4620649031899083 10.790604050620596 9.045719317029075 31.774045072494292 -1 0 0
122 3 -0.5158514931272441 5.50391757114784 8.262694247320244 38.224128174778045 0 0 0
274 1 -0.142248688047928 8.89738044275794 10.46631622772446 38.0149375327852 0 0 0
273 1 0.2550471183307775 9.999036523410581 11.46935671859883 37.936623779861904 0 0 0
147 2 0.1443805009883259 12.50760768187549 10.810071919218093 37.758243986124484 0 0 -1
107 1 -0.04130224952572863 8.89983079320854 7.800281435369211 32.506384988597304 -1 0 0
272 2 0.1773318941122127 7.197574610087331 9.557764969766946 37.00032409404048 0 0 0
109 1 0.3968906377930504 10.147858613141265 8.60857408130245 32.70512315647288 -1 0 0
269 2 0.1788912534211833 11.25027929369576 12.510732266532054 36.477566738776574 0 0 0
270 1 -0.1326556558880804 10.433880023401423 11.87202920683134 36.58588588121982 0 0 0
271 1 -0.0634860893228021 8.068856481497946 10.187330903728636 36.89995225603195 0 0 0
116 2 0.2083798415441662 12.335145501955195 10.692701825257524 33.18242851852375 -1 0 0
267 1 -0.03356030189357653 9.580214149384421 11.604589698321666 35.46242828128404 0 0 0
268 1 -0.06432214326710901 8.299409993568787 10.837723983775815 35.621228651385316 0 0 0
111 1 0.3899975620896462 9.403637450889363 7.928012965206916 34.978424041126374 -1 0 0
112 4 -0.4070919051472341 10.512305518639966 8.824107702362532 34.169516629455885 -1 0 0
260 3 -0.4918680357851243 10.563302819063876 12.680744689772839 33.490303657639316 0 0 0
263 1 0.4173774259260402 9.679830477326604 12.063131721024165 33.98987360032939 0 0 0
265 1 0.3908816095491604 7.5022086763509686 10.78290406402603 34.33724499861516 0 0 0
264 3 -0.4901278717313728 6.390770216838583 10.329192379517856 34.24745677374695 0 0 0
262 4 -0.4362351862775314 8.399002401588273 11.513922469631714 33.26831522668034 0 0 0
118 1 -0.09224807749892072 12.745480242769963 10.044710647418718 34.01983562050424 -1 0 0
117 1 -0.1376435209063885 12.530847416693913 8.169802790647655 35.592212111956684 -1 0 0
119 1 0.1665337243149791 3.1691102574317718 8.27166389914635 35.89487455487272 0 0 0
120 1 -0.07927776456706245 3.281237202567245 10.422935278366964 34.53642068585761 0 0 0
123 1 -0.1231729822625406 3.8231782288798444 9.500124990980478 35.47749715692494 0 0 0
121 2 0.1586409111256097 3.8399981040877154 11.300164973501987 34.20776232249209 0 0 0
128 2 0.1830051260423121 4.789887005827122 9.673843182941198 35.8616782090961 0 0 0
114 1 0.1803890887942061 11.912519737291829 9.03581619967493 34.61295344280235 -1 0 0

Velocities

5 0.007831273882805127 -0.010574337396200426 -0.0009361685900721985
7 -0.000518842964344116 -0.009204353098800314 0.0035700294467430707
10 -0.011519640278677828 -0.0035476115341861927 -0.0008087836156566472
15 0.0033219382130306894 -0.01678259940533649 -0.007746763991732921
139 -0.001488483437109111 -0.0030446504365555915 0.0026164840110156416
140 -6.61314567129755e-05 0.0035139789664299526 -0.00015070156524070487
143 -0.021054596395742475 0.012308816396835473 0.019624072596100196
145 0.005311749585610055 -0.0009272691172733249 -0.005815387352787457
158 -0.003965696360988759 0.0014293015401407936 -0.00011629759918172479
160 0.010543207354319113 0.020716015265426158 0.013381622419089434
162 -0.002024177482130004 -8.577222279161196e-05 -0.00040706155188216503
164 0.010214670480086754 -0.001370100947969746 -0.012447101243753521
166 0.008918866791170944 0.0363297288346851 -0.0038303326030468088
161 -0.004050089701724433 0.0050939003115506466 0.0007733010073374953
167 0.000354070410776552 -0.005800756515860261 0.005154175210243085
163 0.007037856101674819 -0.0002914948647624765 -0.0012301032632223764
168 -0.0005734096559956576 -0.0059623553212422315 0.002131489485171287
170 -0.003473511872791325 0.00402007040601436 -0.00627465000660296
159 0.015837732500543024 -0.01444023599806657 -0.00656738280223251
165 -0.007567271861003299 -0.012470820374407568 0.0005858645528906021
2 -0.0035366523237502913 0.002020742274749002 -0.0016668195273696514
1 -0.02014514738690036 -0.034556428695467364 0.007589320763370772
23 -0.004814755248527974 -0.005203509141627787 0.0029255361599451876
172 -0.009707925468344536 -0.01340688653403486 0.019213629270852354
21 -0.0035302895198492264 -0.007869648990465902 -0.002186299027658568
12 0.003541305668249729 -0.006921384042824055 -0.003246317119959213
16 0.008597878536863269 -0.005182469720806211 -0.005949174108689345
3 -0.005489355446948343 -0.0045881837068050746 0.0020360225238655544
8 -0.003210542693230531 0.0017281304840495834 -0.010166344133275496
173 0.005517981528978204 0.006057190032931427 0.004164017423087957
131 0.011881927349698175 0.003581143880973278 -0.014059576823806607
25 -0.00277012489876985 0.0027657008568897296 0.005046076950369295
176 0.0015925765494716941 0.006869659473299095 -0.00440768496919635
34 0.005338455839660984 -0.007853682538247655 0.0020550917472270266
179 0.010966687193079534 -0.0013077957338195369 -0.004979543965253091
27 -0.020878860191464056 -0.013643478056111618 -0.022779798826318944
32 7.775757000676722e-05 -0.002411868702492993 0.004445276348157094
33 0.002027627131369116 0.0014954026137946942 -0.0033877928876520085
35 -0.0015267284416283402 0.004022926565730534 0.004887523989403043
36 0.0036274295883676534 0.0021690528693761183 0.002462598014751415
38 -0.0026587789485798454 -0.005455485868333291 0.0018258986238826513
39 0.003166303024002629 0.00402570192062999 0.007182013141402534
42 0.0017903744592637821 0.0038754262967546594 0.008446669597460776
43 -0.00388821999450215 -0.0009178452064414845 -0.0096528339075682
40 -0.008846115485965526 0.0005120561441061935 -0.008768392581518902
41 -0.005546520160003516 0.004707991211592264 0.004803320267087489
45 0.009536901638424676 -0.011675924272349763 -0.0022027092441941716
46 -0.0038126042443685274 -0.001804173683097978 -0.004352126290601496
47 -0.0054825607408457945 0.0001501120799506199 -0.004025818590959272
178 -0.005380353474938948 0.0010431073360297452 -0.0018835518135915691
184 -0.009341922155081532 -0.00023139365424097952 0.00195602355492018
187 0.006732960533791062 -0.0005257491933367671 0.009130311458957404
181 -0.00018027696307937414 -0.0010241153979801978 -0.0041345393810132205
190 -0.001019442529424669 -0.003605930357285289 -0.0011849945729533662
186 -0.010181080006297206 0.0018557159802366214 -0.010803879903498473
193 0.002169522089000715 -0.004741961976559903 -0.0007626834167689469
192 0.003187593763317807 0.0032240194039914126 -0.0036895766262302486
195 0.0025851250700804317 0.004901301175843993 0.000108068911997758
220 -0.014189715021471549 -0.0017465094150664123 -0.012151740868428962
226 -0.006386429387714372 -0.004523139749253612 -0.010177605363331371
37 -0.018439793616362582 0.003408669394257361 -0.010037224308155675
212 0.0078032266682999205 0.01623677022884302 0.021181287996926947
44 0.0031983725109787234 0.003934716508098387 0.0008605493343602113
188 -0.004222217644200626 -0.001121055663771 0.003123152495396611
191 0.0010490098719833306 -0.00634729915708891 -0.0008518079413919097
197 -0.0014068707369538952 -0.0029680871132640764 -0.0046861382276733345
194 0.01526389609752031 -0.008261895917320313 0.009526721440799924
196 0.002864428219407171 0.0023133504408995786 -0.006480844524767644
224 -0.030835841845868694 -0.0012997514529929132 -0.01421038812479103
207 -0.0018155793670056757 -0.021817653624075752 -0.00745212009447625
209 -0.001824715469947111 -0.001656890210213514 -0.00046092908252680576
214 -0.00907411056812782 0.0013417237045898246 0.0007411141550302218
221 -0.0005832583232274498 0.0004583189713988015 -0.004471356349639062
218 0.0010594456143464318 0.0024826735143864665 0.010142212455826539
211 0.006341879529730784 -0.004566152225861008 0.026464768248592518
225 -0.0016020262029598253 0.0038712325415612503 0.0014466815231295644
217 0.0016002980696489066 -0.0076191228749714615 0.004175037928419055
222 -0.014283661477150556 0.007555041550180716 -0.004590248179980723
219 0.0046446151496384435 -0.003112854448587032 0.0016716156547898439
227 -0.004042489172213527 0.005216360156623964 0.0026927305591593373
223 0.014109626657237457 0.012949234627719882 -0.015608394575350447
229 0.02431991201417388 0.043271920262786506 -0.0060648372790962
213 -0.0026370019332181143 0.03911705589311952 0.019926848847750162