 LAMMPS data file, charge style generated xyz_lammps.py by Wenchang Lu 

276 atoms
4 atom types

0.000000   15.369497   xlo xhi 
0.000000   15.369497   ylo yhi 
0.000000   45.146142   zlo zhi 
0.000000   0.000000   0.000000  xy xz yz 

Masses

2  1.007940
1  12.010700
3  15.999000
4  14.000000

Atoms # charge

1 2 0.0 0.249966 3.201123 0.000000 
2 1 0.0 1.118172 2.855052 0.554577 
3 1 0.0 1.413396 1.497438 0.606896 
4 2 0.0 5.410522 4.001051 0.855131 
5 2 0.0 1.680650 4.826878 1.114361 
6 2 0.0 3.731849 5.991741 1.131902 
7 1 0.0 1.944392 3.777960 1.195403 
8 1 0.0 2.524159 1.060692 1.321975 
9 2 0.0 2.757353 0.000000 1.365648 
10 1 0.0 3.085189 3.358196 1.904727 
11 1 0.0 5.477636 4.072386 1.944151 
12 1 0.0 3.345817 1.982452 1.970914 
13 2 0.0 6.187384 4.872167 2.168369 
14 1 0.0 3.746513 5.828704 2.212727 
15 2 0.0 5.898395 3.137378 2.318697 
16 2 0.0 4.209143 1.614962 2.518964 
17 1 0.0 4.075082 4.351571 2.556082 
18 2 0.0 2.776063 6.119626 2.623018 
19 2 0.0 4.492741 6.503590 2.640007 
20 1 0.0 4.071372 4.253711 4.097867 
21 2 0.0 1.987891 3.679417 4.247811 
22 2 0.0 6.118968 4.926667 4.363529 
23 1 0.0 2.891898 3.943585 4.790136 
24 1 0.0 5.192706 4.638212 4.849907 
25 1 0.0 2.825951 4.048726 6.180686 
26 1 0.0 5.126078 4.748127 6.237963 
27 2 0.0 1.881659 3.874781 6.690322 
28 2 0.0 5.984045 5.122019 6.791240 
29 1 0.0 3.940624 4.460627 6.907318 
30 3 0.0 3.799742 4.825911 8.229992 
31 2 0.0 5.974409 3.491775 9.031510 
32 1 0.0 3.896874 4.006694 9.334833 
33 1 0.0 5.118280 3.413586 9.697523 
34 2 0.0 1.872688 4.462588 9.961868 
35 1 0.0 2.803985 3.955872 10.203460 
36 1 0.0 5.264471 2.788788 10.946381 
37 2 0.0 6.220622 2.372992 11.254312 
38 1 0.0 2.970604 3.318467 11.425831 
39 1 0.0 4.167184 2.774630 11.806279 
40 1 0.0 2.035832 3.204619 12.562042 
41 3 0.0 0.895904 3.626314 12.598720 
42 1 0.0 4.029067 2.339083 13.226683 
43 4 0.0 2.762634 2.687915 13.595857 
44 3 0.0 4.907378 1.917912 13.952659 
45 2 0.0 1.769890 4.884555 14.626794 
46 1 0.0 2.316219 2.815545 14.965968 
47 1 0.0 1.808387 4.064945 15.337346 
48 2 0.0 2.855548 0.835482 15.678854 
49 1 0.0 2.407182 1.794154 15.934948 
50 1 0.0 1.344363 4.295953 16.618566 
51 2 0.0 0.942358 5.266805 16.892654 
52 1 0.0 1.951304 2.031365 17.248335 
53 1 0.0 1.425396 3.293457 17.562526 
54 3 0.0 4.451369 1.036142 18.190819 
55 4 0.0 2.163088 1.147992 18.376739 
56 2 0.0 1.100752 3.531857 18.571564 
57 1 0.0 3.433468 1.029014 18.854543 
58 3 0.0 0.027428 1.275346 19.230112 
59 1 0.0 1.228910 1.152238 19.376444 
60 1 0.0 3.325197 1.433946 20.279816 
61 1 0.0 1.997197 1.558294 20.579878 
62 2 0.0 5.361842 1.738880 20.919538 
63 1 0.0 4.309580 1.853885 21.167092 
64 1 0.0 1.570903 2.193418 21.745902 
65 2 0.0 0.511084 2.354439 21.928268 
66 1 0.0 3.905917 2.516208 22.336055 
67 1 0.0 2.542164 2.733185 22.608489 
68 2 0.0 4.660719 2.891530 23.020688 
69 2 0.0 0.930634 5.742384 23.228470 
70 3 0.0 2.124052 3.433913 23.736332 
71 1 0.0 1.774292 5.819486 23.910594 
72 1 0.0 2.541855 4.688620 24.190030 
73 2 0.0 1.434214 7.892860 24.231846 
74 2 0.0 4.929060 8.781874 24.287029 
75 2 0.0 2.701104 9.822246 24.361153 
76 1 0.0 2.061243 7.051753 24.510601 
77 1 0.0 3.593402 4.818898 25.099607 
78 2 0.0 4.188955 3.946711 25.354502 
79 1 0.0 4.954999 8.891383 25.374040 
80 1 0.0 3.119078 7.203631 25.428823 
81 1 0.0 2.657859 9.752821 25.450905 
82 2 0.0 5.279921 9.912672 25.590651 
83 1 0.0 3.878889 6.054697 25.702022 
84 2 0.0 1.613731 9.617609 25.741497 
85 2 0.0 5.711288 8.204059 25.758639 
86 2 0.0 2.984837 10.715229 25.853541 
87 1 0.0 3.556188 8.598790 25.987356 
88 2 0.0 4.719478 6.118469 26.387651 
89 1 0.0 3.548977 8.761852 27.543185 
90 2 0.0 1.435628 8.357455 27.739936 
91 2 0.0 5.632454 9.353645 27.778145 
92 1 0.0 2.338243 8.686571 28.248915 
93 1 0.0 4.666306 9.240991 28.257660 
94 1 0.0 2.230851 9.141419 29.570349 
95 1 0.0 4.560753 9.692873 29.579330 
96 2 0.0 1.257127 9.159987 30.054080 
97 2 0.0 5.425034 10.144589 30.059477 
98 1 0.0 3.335872 9.658867 30.243893 
99 3 0.0 3.139472 10.352585 31.436008 
100 2 0.0 5.478086 9.343998 32.332243 
101 1 0.0 3.440744 9.959606 32.733647 
102 1 0.0 4.707096 9.460762 33.088196 
103 2 0.0 1.498759 10.586661 33.479439 
104 1 0.0 2.470272 10.166076 33.726889 
105 1 0.0 4.998351 9.129812 34.420389 
106 2 0.0 5.975286 8.745135 34.702940 
107 1 0.0 2.775408 9.811616 35.039396 
108 1 0.0 4.001160 9.304257 35.375790 
109 1 0.0 1.955004 9.861959 36.277648 
110 3 0.0 0.803126 10.235348 36.379175 
111 1 0.0 3.988633 9.016948 36.834375 
112 4 0.0 2.743831 9.358891 37.269537 
113 3 0.0 4.895315 8.557824 37.501037 
114 1 0.0 2.296256 9.178512 38.633627 
115 2 0.0 2.935773 7.119578 38.775226 
116 2 0.0 1.543694 11.195826 38.832059 
117 1 0.0 2.457420 7.949737 39.288468 
118 1 0.0 1.676352 10.235672 39.317880 
119 1 0.0 2.001640 7.778032 40.598100 
120 1 0.0 1.221177 10.059874 40.619687 
121 2 0.0 0.733581 10.882346 41.142630 
122 3 0.0 0.000000 5.778580 41.148777 
123 1 0.0 1.382577 8.836330 41.260862 
124 4 0.0 2.172563 6.527985 41.286148 
125 1 0.0 1.153453 5.659383 41.517736 
126 3 0.0 4.400528 6.756267 41.821392 
127 1 0.0 3.349867 6.149755 41.845997 
128 2 0.0 1.021113 8.707349 42.280693 
129 1 0.0 1.735785 4.581699 42.352381 
130 1 0.0 3.057995 4.876849 42.554950 
131 2 0.0 0.096929 3.230640 42.748804 
132 1 0.0 1.149122 3.451629 42.908604 
133 1 0.0 3.877872 4.063638 43.329097 
134 2 0.0 4.923081 4.313132 43.492983 
135 1 0.0 1.955653 2.613277 43.689498 
136 1 0.0 3.310019 2.917655 43.898920 
137 3 0.0 1.413396 1.497438 44.253037 
138 2 0.0 3.927360 2.264561 44.511623 
139 2 0.0 7.934714 10.885871 0.000000 
140 1 0.0 8.802920 10.539800 0.554577 
141 1 0.0 9.098144 9.182186 0.606896 
142 2 0.0 13.095270 11.685799 0.855131 
143 2 0.0 9.365398 12.511626 1.114361 
144 2 0.0 11.416597 13.676489 1.131902 
145 1 0.0 9.629140 11.462708 1.195403 
146 1 0.0 10.208907 8.745440 1.321975 
147 2 0.0 10.442101 7.684748 1.365648 
148 1 0.0 10.769937 11.042944 1.904727 
149 1 0.0 13.162384 11.757134 1.944151 
150 1 0.0 11.030565 9.667200 1.970914 
151 2 0.0 13.872132 12.556915 2.168369 
152 1 0.0 11.431261 13.513452 2.212727 
153 2 0.0 13.583143 10.822126 2.318697 
154 2 0.0 11.893891 9.299710 2.518964 
155 1 0.0 11.759830 12.036319 2.556082 
156 2 0.0 10.460811 13.804374 2.623018 
157 2 0.0 12.177489 14.188338 2.640007 
158 1 0.0 11.756120 11.938459 4.097867 
159 2 0.0 9.672639 11.364165 4.247811 
160 2 0.0 13.803716 12.611415 4.363529 
161 1 0.0 10.576646 11.628333 4.790136 
162 1 0.0 12.877454 12.322960 4.849907 
163 1 0.0 10.510699 11.733474 6.180686 
164 1 0.0 12.810826 12.432875 6.237963 
165 2 0.0 9.566407 11.559529 6.690322 
166 2 0.0 13.668793 12.806767 6.791240 
167 1 0.0 11.625372 12.145375 6.907318 
168 3 0.0 11.484490 12.510659 8.229992 
169 2 0.0 13.659157 11.176523 9.031510 
170 1 0.0 11.581622 11.691442 9.334833 
171 1 0.0 12.803028 11.098334 9.697523 
172 2 0.0 9.557436 12.147336 9.961868 
173 1 0.0 10.488733 11.640620 10.203460 
174 1 0.0 12.949219 10.473536 10.946381 
175 2 0.0 13.905370 10.057740 11.254312 
176 1 0.0 10.655352 11.003215 11.425831 
177 1 0.0 11.851932 10.459378 11.806279 
178 1 0.0 9.720580 10.889367 12.562042 
179 3 0.0 8.580652 11.311062 12.598720 
180 1 0.0 11.713815 10.023831 13.226683 
181 4 0.0 10.447382 10.372663 13.595857 
182 3 0.0 12.592126 9.602660 13.952659 
183 2 0.0 9.454638 12.569303 14.626794 
184 1 0.0 10.000967 10.500293 14.965968 
185 1 0.0 9.493135 11.749693 15.337346 
186 2 0.0 10.540296 8.520230 15.678854 
187 1 0.0 10.091930 9.478902 15.934948 
188 1 0.0 9.029111 11.980701 16.618566 
189 2 0.0 8.627106 12.951553 16.892654 
190 1 0.0 9.636052 9.716113 17.248335 
191 1 0.0 9.110144 10.978205 17.562526 
192 3 0.0 12.136117 8.720890 18.190819 
193 4 0.0 9.847836 8.832740 18.376739 
194 2 0.0 8.785500 11.216605 18.571564 
195 1 0.0 11.118216 8.713762 18.854543 
196 3 0.0 7.712176 8.960094 19.230112 
197 1 0.0 8.913658 8.836986 19.376444 
198 1 0.0 11.009945 9.118694 20.279816 
199 1 0.0 9.681945 9.243042 20.579878 
200 2 0.0 13.046590 9.423628 20.919538 
201 1 0.0 11.994328 9.538633 21.167092 
202 1 0.0 9.255651 9.878166 21.745902 
203 2 0.0 8.195832 10.039187 21.928268 
204 1 0.0 11.590665 10.200956 22.336055 
205 1 0.0 10.226912 10.417933 22.608489 
206 2 0.0 12.345467 10.576278 23.020688 
207 2 0.0 8.615382 13.427132 23.228470 
208 3 0.0 9.808800 11.118661 23.736332 
209 1 0.0 9.459040 13.504234 23.910594 
210 1 0.0 10.226603 12.373368 24.190030 
211 2 0.0 9.118962 15.577608 24.231846 
212 2 0.0 12.613808 16.466622 24.287029 
213 2 0.0 10.385852 17.506994 24.361153 
214 1 0.0 9.745991 14.736501 24.510601 
215 1 0.0 11.278150 12.503646 25.099607 
216 2 0.0 11.873703 11.631459 25.354502 
217 1 0.0 12.639747 16.576131 25.374040 
218 1 0.0 10.803826 14.888379 25.428823 
219 1 0.0 10.342607 17.437569 25.450905 
220 2 0.0 12.964669 17.597420 25.590651 
221 1 0.0 11.563637 13.739445 25.702022 
222 2 0.0 9.298479 17.302357 25.741497 
223 2 0.0 13.396036 15.888807 25.758639 
224 2 0.0 10.669585 18.399977 25.853541 
225 1 0.0 11.240936 16.283538 25.987356 
226 2 0.0 12.404226 13.803217 26.387651 
227 1 0.0 11.233725 16.446600 27.543185 
228 2 0.0 9.120376 16.042203 27.739936 
229 2 0.0 13.317202 17.038393 27.778145 
230 1 0.0 10.022991 16.371319 28.248915 
231 1 0.0 12.351054 16.925739 28.257660 
232 1 0.0 9.915599 16.826167 29.570349 
233 1 0.0 12.245501 17.377621 29.579330 
234 2 0.0 8.941875 16.844735 30.054080 
235 2 0.0 13.109782 17.829337 30.059477 
236 1 0.0 11.020620 17.343615 30.243893 
237 3 0.0 10.824220 18.037333 31.436008 
238 2 0.0 13.162834 17.028746 32.332243 
239 1 0.0 11.125492 17.644354 32.733647 
240 1 0.0 12.391844 17.145510 33.088196 
241 2 0.0 9.183507 18.271409 33.479439 
242 1 0.0 10.155020 17.850824 33.726889 
243 1 0.0 12.683099 16.814560 34.420389 
244 2 0.0 13.660034 16.429883 34.702940 
245 1 0.0 10.460156 17.496364 35.039396 
246 1 0.0 11.685908 16.989005 35.375790 
247 1 0.0 9.639752 17.546707 36.277648 
248 3 0.0 8.487874 17.920096 36.379175 
249 1 0.0 11.673381 16.701696 36.834375 
250 4 0.0 10.428579 17.043639 37.269537 
251 3 0.0 12.580063 16.242572 37.501037 
252 1 0.0 9.981004 16.863260 38.633627 
253 2 0.0 10.620521 14.804326 38.775226 
254 2 0.0 9.228442 18.880574 38.832059 
255 1 0.0 10.142168 15.634485 39.288468 
256 1 0.0 9.361100 17.920420 39.317880 
257 1 0.0 9.686388 15.462780 40.598100 
258 1 0.0 8.905925 17.744622 40.619687 
259 2 0.0 8.418329 18.567094 41.142630 
260 3 0.0 7.684748 13.463328 41.148777 
261 1 0.0 9.067325 16.521078 41.260862 
262 4 0.0 9.857311 14.212733 41.286148 
263 1 0.0 8.838201 13.344131 41.517736 
264 3 0.0 12.085276 14.441015 41.821392 
265 1 0.0 11.034615 13.834503 41.845997 
266 2 0.0 8.705861 16.392097 42.280693 
267 1 0.0 9.420533 12.266447 42.352381 
268 1 0.0 10.742743 12.561597 42.554950 
269 2 0.0 7.781677 10.915388 42.748804 
270 1 0.0 8.833870 11.136377 42.908604 
271 1 0.0 11.562620 11.748386 43.329097 
272 2 0.0 12.607829 11.997880 43.492983 
273 1 0.0 9.640401 10.298025 43.689498 
274 1 0.0 10.994767 10.602403 43.898920 
275 3 0.0 9.098144 9.182186 44.253037 
276 2 0.0 11.612108 9.949309 44.511623 
