LAMMPS data file via write_data, version 19 Nov 2024, timestep = 2000, units = real

20640 atoms
4 atom types

0.6059630206252518 15.394036979375073 xlo xhi
24.23852082501088 615.761479174997 ylo yhi
1.741764957409849 44.2482350425899 zlo zhi
0 0 0 xy xz yz

Masses

1 12.0107
2 1.00794
3 15.999
4 14.0067

Atoms # charge

433 2 0.1384865371775289 0.80496236015771 30.06657189850054 5.279651243314785 1 0 0
292 2 0.1209359504151282 5.282400706506744 25.830455529543606 7.742108104281583 0 0 0
435 2 0.1182982097564508 0.9056513331994762 27.47233678651348 7.135771540200536 1 0 0
288 1 -0.110486511066149 5.488544601578857 24.773197445302237 7.580167051093958 0 0 0
425 1 -0.3149852724008441 0.6968581208507747 27.46363230623451 4.577282318952406 1 0 0
285 2 0.1167076494806724 4.67944579269507 24.764626267471204 5.5265000828861455 0 0 0
429 2 0.1058576103751745 1.6446883277779825 27.87454722271316 4.999649269867149 1 0 0
427 2 0.1309880625301984 0.8570171410438243 27.37134280662118 3.496481148054807 1 0 0
418 2 0.1075996023023292 15.382448650402777 26.415344980891618 4.989294929422427 0 0 0
428 1 -0.2980626204069376 14.53396399757836 29.813671774228418 5.139476116046762 0 0 0
430 2 0.1322218460064082 13.227914886110113 26.02103635251504 4.075776717069321 0 0 0
422 1 -0.1219023654826691 12.188726459282254 26.424672808832405 2.191377028866811 0 0 0
426 1 -0.09492212190670711 12.871980305266428 26.775986776741217 3.3648657478106934 0 0 0
438 1 -0.1040434364073561 12.281013296704012 28.091136057085553 6.634310868302904 0 0 0
436 2 0.1307064892875958 11.486464621404583 28.168813150589244 5.844243766502535 0 0 0
431 1 0.02579622098986594 14.170816406614023 28.3172297743621 4.886291072114373 0 0 0
434 1 -0.01027491540937089 13.687270936906968 27.867376915436857 6.293618990077397 0 0 0
424 1 -0.01719578772235774 13.241272562089557 28.1560578449838 3.7061350747590236 0 0 0
421 1 -0.1136345337016006 12.733917312219987 29.154649731332583 2.734687286841885 0 0 0
440 1 -0.1666284099520144 11.814116499309073 28.33069979959386 7.937389459301687 0 0 0
437 1 -0.1134104406713342 14.652505468422282 27.654411492639117 7.390001723309881 0 0 0
442 2 0.1260398657970406 10.770385427851169 28.503923420362153 8.150656481251115 0 0 0
169 2 0.1489406835330587 11.004433728748788 25.66623500364794 7.522522187762072 0 0 0
423 2 0.166859042767924 11.981838751077937 25.367055642093458 1.9601247739201457 0 0 0
419 2 0.09960019116086664 13.003310053691866 30.223289196209855 2.8485413641598853 0 0 0
439 1 -0.1171476714392022 14.166870958704205 27.848833799446183 8.680064574424524 0 0 0
171 1 -0.1544197728391267 10.727451309475015 24.61863160631247 7.631487558965715 0 0 0
168 3 -0.5049100562907686 10.308704794800418 24.509690722932856 5.272199797007243 0 0 0
165 2 0.1595126362871301 9.40102314506936 25.71198673704876 3.1509003017318298 0 0 0
163 1 -0.1302168315703862 9.764841098804954 24.72751353193049 2.9473818550336013 0 0 0
432 2 0.1554280198206262 14.090472393776505 30.14487834740488 6.070321096496992 0 0 0
579 2 0.1388772245251873 6.1055646065656175 34.72370947586166 2.50157002595027 0 0 0
583 2 0.1258625699562436 5.750348146312921 31.84321232517685 3.7388541057300877 0 0 0
588 1 -0.08661542031702282 4.131729156868966 32.43369520880714 5.025777659508853 0 0 0
589 2 0.1193185460675877 3.5053442931023784 31.5644491353818 4.72629120127608 0 0 0
585 1 -0.1558985186695554 5.429797365767665 32.564735828873324 4.52028780963098 0 0 0
591 1 -0.05021479172551588 3.6237105412420965 33.51753115243511 5.881718813799138 0 0 0
581 1 0.2418326272312289 7.767036710899508 33.50804407068358 3.3284845483873533 0 0 0
577 1 -0.1511611084284126 7.048497317926956 34.168483675850545 2.234032606302364 0 0 0
594 1 0.4023688035240247 2.3595574965451718 33.64895248930181 6.676451186347867 0 0 0
582 3 -0.4752097123069605 7.572961161682709 33.66045273347238 4.670420605580996 0 0 0
584 1 0.2564116584035653 6.262938435780435 33.66027374260105 4.966564431359346 0 0 0
713 1 -0.1035162383745579 1.0446939603678782 34.612575974870964 2.2575547473718416 1 0 0
711 2 0.1289832599144912 2.004277281126067 35.01171753436571 1.9522296119564144 1 0 0
587 1 -0.106061051932892 5.906535422970953 34.71930392638522 5.947868098117004 0 0 0
590 1 -0.05115003724140325 4.54976093849025 34.580436554920695 6.384059699674306 0 0 0
586 2 0.1812634456197274 6.583851036144842 35.5170551505879 6.3035157631505605 0 0 0
595 4 -0.4029053182710287 2.508891431397577 34.595474528760924 7.826970987916635 0 0 0
592 1 0.3843096964521449 3.907386717297956 35.30642230804443 7.606208842077033 0 0 0
717 2 0.1670525077486242 1.1757227951066689 35.53586626592558 4.20549612101593 1 0 0
593 3 -0.457349123650385 4.494137517681826 35.99436853322963 8.379952179831363 0 0 0
596 3 -0.4342943473695879 1.317611246146297 33.28095723303856 6.2290777386145555 0 0 0
598 1 0.2038643338082364 1.2766099247008338 35.3793233293745 8.334289136500537 0 0 0
420 2 0.1209442981060829 14.179170973329109 30.568416106906007 4.361534460289631 0 0 0
715 1 -0.1142360868576348 15.35361019868998 34.920306714479466 3.5286558939953956 0 0 0
714 1 -0.1226898019704691 13.858717640795863 33.18160300254837 1.8350180237896567 0 0 0
578 1 -0.1336886649778425 8.90845116557445 32.670700743219186 3.003160569083345 0 0 0
732 1 0.4221435751124962 9.080415461913766 33.53011855978687 8.50736339054382 0 0 0
727 2 0.1426279562916699 11.045689585607237 31.547263576584267 7.318657344138366 0 0 0
726 1 -0.08276706863127177 11.161511779620621 32.5616745503163 7.03462634157297 0 0 0
723 1 -0.1440927540062117 12.239658612056413 32.95511437191102 6.148169478029205 0 0 0
721 2 0.1371515124455454 12.844636921229682 32.16187217286057 5.684760692815669 0 0 0
722 1 0.2549066326496394 12.439582141882624 34.3303263659838 5.778999665635212 0 0 0
725 1 -0.1158487470312589 11.623465400315622 35.38227244778473 6.341427569800635 0 0 0
729 1 -0.03774330785111787 10.308161474296666 33.56899488689531 7.555824748670783 0 0 0
719 1 0.2930326022868553 14.081310931533515 34.33404775688646 4.018340124236502 0 0 0
720 3 -0.4831069760510443 13.565337660466286 34.80251066490907 5.137424139836025 0 0 0
716 1 -0.1667202333352748 13.337530273950419 33.5039819436276 3.1069108070916536 0 0 0
718 2 0.1307357595440944 12.337773709154934 33.171648291949225 3.38688724476427 0 0 0
728 1 -0.0307432387331158 10.508190410155644 34.98775469238856 7.117607793072245 0 0 0
580 2 0.1478855512690377 9.341523884638011 32.10104045769117 3.779912492405377 0 0 0
730 1 0.408663179651673 9.389344427614855 35.89217453016524 7.723643453158005 0 0 0
733 4 -0.4228655264111637 8.464273882314691 34.95957690228629 8.576993602200751 0 0 0
724 2 0.1707859622449147 11.851881923792348 36.43791459702862 6.168086053847513 0 0 0
829 2 0.1562881411270307 6.310316296490934 37.160695245571816 4.153938821121878 0 0 0
959 2 0.1577382490038935 2.2594022124887037 39.63967339635089 2.4985009029613114 0 0 1
835 1 -0.1054413076404244 5.891889954880715 38.4401706480097 5.835069952739499 0 0 0
840 1 -0.1081102742015603 4.539510702035098 40.43620948380551 5.333459541337749 0 0 0
849 2 0.1187497119798997 2.7598594589503427 40.22887585025683 7.0043079619445985 0 0 0
838 1 -0.01271210857052922 5.252285516609823 39.65685835988695 6.354471986869982 0 0 0
855 2 0.1367567017359786 0.9022683983421032 41.39653052967783 8.013085028017906 0 0 0
844 2 0.1368246825494286 4.24490889275815 41.46703284971994 5.601079682716214 0 0 0
851 1 -0.1184341439861913 3.0085028733443298 40.93902035265404 7.786071597225235 0 0 0
853 1 -0.1493525448206995 1.9045465456162651 41.578674880685696 8.375671178442289 0 0 0
836 1 -0.153144124325458 4.417690186583974 40.045600746966386 3.9930955513313036 0 0 0
837 2 0.1706663143532912 3.9663358532033355 40.713416909659735 3.280747922086527 0 0 0
845 1 0.006071940960840681 5.5153063950737256 40.257834144045646 7.71334148107288 0 0 0
848 1 -0.01059660323093109 4.3747222157984424 41.07080197661756 8.254756575112635 0 0 0
831 1 0.2621244945829535 4.969024191448893 38.78722062971763 3.527512302311825 0 0 0
965 3 -0.5211327259320158 4.674948754734238 38.274575598782825 2.318031522435646 0 0 1
830 1 -0.1451696281329508 5.7721309379295676 38.03032559184437 4.470210744884662 0 0 0
833 2 0.1475887702310006 6.486251486132528 37.78328059816396 6.465279437442667 0 0 0
839 1 -0.2926210658543778 5.7910510544871965 39.124309019996936 8.810692081671274 0 0 0
843 2 0.1653938625356243 6.748424026726329 38.53203526644364 8.554173312591603 0 0 0
842 1 -0.2869493157105423 6.720573829394625 41.18504638200136 7.361261205463907 0 0 0
834 2 0.1576221860697813 6.338690743473262 42.07389572855503 6.7601390312006755 0 0 0
847 2 0.1556769619977931 7.48288980708799 40.6707530806881 6.727730808085094 0 0 0
597 2 0.1396206058804796 1.7387650834859314 37.314175533657355 7.276781998186371 0 0 0
846 2 0.1617163402448425 7.1866679010485965 41.63250072547156 8.275810433863668 0 0 0
599 1 -0.1118176317824226 0.9911867892785037 36.71303544863585 7.831938574903202 0 0 0
1094 2 0.157215193305378 8.643090889338543 41.6803578863968 2.1910018119118235 0 0 1
603 2 0.1172484422524022 14.151404198656063 38.160054316039705 7.656320576446632 -1 0 0
602 1 -0.08295573317504076 14.4936957243304 37.210891063915895 8.102745920160597 -1 0 0
731 3 -0.4731754724421948 9.309579091879343 37.04527426672144 7.469332614960424 0 0 0
1271 1 0.2547094282077463 4.154738319686306 48.88169868455807 6.0963070954519 0 0 0
1272 3 -0.5076528363675513 3.804011586382753 48.26100145454464 7.231270675376774 0 0 0
1269 2 0.1512548148198384 3.958413026723091 46.943157888056646 4.97918514757671 0 0 0
1267 1 -0.1353574947192967 4.218625150669872 48.00896485053475 4.93569639702565 0 0 0
1263 2 0.1359925649811947 4.892135230302225 47.825007533732645 2.8979923768718643 0 0 0
1265 1 -0.1185113848015776 4.761984720207836 48.49596218820303 3.7211808443510783 0 0 0
1122 2 0.1246729673769897 0.7413141644703157 45.482919313607994 5.187921180373998 0 0 0
1093 1 0.3868843418058504 5.958479885516268 44.14811973689508 3.679211667534637 0 0 1
1092 3 -0.4365888766588683 4.907147423829518 43.867972501217984 3.177174492161168 0 0 1
1090 4 -0.4265591718528642 7.362233084940466 44.05949032497632 3.0310196247630277 0 0 1
1099 1 -0.09147277954873949 5.2064074372348115 44.46038474754924 6.296534448501875 0 0 1
1096 1 -0.06198267048674984 6.148840125537031 44.340924774094844 5.191868567647619 0 0 1
1100 2 0.1337769502802159 4.109979988985723 44.35868133316744 6.126633008181435 0 0 1
1102 1 -0.151473794745367 5.718650070066634 44.625623684488886 7.6309050374715754 0 0 1
1274 1 0.2403285152101737 4.292824829287262 48.8241309790932 8.389460299656815 0 0 0
967 2 0.1465272960310216 6.86200344190371 46.922854135373456 8.78458657634766 0 0 0
1104 2 0.1489877767763872 4.986308956808193 44.78205614253814 8.382311467870949 0 0 1
1095 1 -0.06055160340216015 7.615080904641437 44.33907234312796 5.477260505966982 0 0 1
1101 1 0.2058551676582023 7.100562271447221 44.6261905172424 7.936643731154173 0 0 1
1123 2 0.1352788978677757 0.714478519096366 47.001594465652005 6.130858825256531 0 0 0
1120 2 0.1184473774437281 15.220640527862777 46.689993147773464 3.5960049880622886 -1 0 0
1088 3 -0.4703944822872579 9.545248478839351 43.907001403478674 4.153799267322986 0 0 1
1091 1 0.4052170750549161 8.365690891482096 44.09441655376262 4.1791880624985165 0 0 1
1097 2 0.1537816318442488 9.11268316842118 44.429943132641654 7.074892518108953 0 0 1
1110 2 0.14367577774889 15.285992767091159 45.36707403664982 6.886668193981503 -1 0 0
1118 1 -0.3086934264275319 15.023894800358848 45.994274917508534 6.015187681255498 -1 0 0
1098 1 -0.1288679953841887 8.02614151617112 44.4906466777839 6.8677711972152204 0 0 1
1119 2 0.1495378605185444 13.376571993362084 44.08817532315825 4.745508355385904 -1 0 0
1105 2 0.1531744705873131 10.45627535854366 48.23393427378201 2.7413164874998333 -1 0 0
1109 2 0.1441364216252797 11.031304992169135 47.01927766756364 4.8500606465209675 -1 0 0
1111 1 -0.1018829602549648 11.806113350703692 47.19817006755453 4.142422016792754 -1 0 0
1115 1 -0.2981950336941426 12.819662711922405 44.647460828570246 5.5554377971741475 -1 0 0
1121 1 0.01716276911382811 13.461065838704197 46.07928872418741 5.704772732477965 -1 0 0
1108 2 0.1304406642251218 12.843431079825281 44.09237599405244 6.528774840003931 -1 0 0
1128 1 -0.1151148919179585 11.652993976321305 46.44911173781611 7.622337568034015 -1 0 0
1117 2 0.1713459705608358 11.745109370322009 44.64620924886388 5.257156373075652 -1 0 0
1114 1 0.001521161519758297 13.15398322021821 46.76042330382447 4.422396525828056 -1 0 0
1124 1 -0.003036925880654285 12.772632880163503 46.88274783684143 6.807068238975666 -1 0 0
1116 1 -0.1031996907203918 14.18293402294782 47.00192614209473 3.4252699034990877 -1 0 0
1106 1 -0.1160108525165321 11.46973594296598 47.829147859746286 2.9092264573340056 -1 0 0
1125 2 0.1255909470863458 14.042617966895444 48.61942988414095 6.3734714468825855 -1 0 0
1127 1 -0.1031876254599421 13.242774563050439 48.24478356463021 6.990796634490735 -1 0 0
1112 1 -0.1676085216598343 13.86914146762212 47.60280826978351 2.169837734120859 -1 0 0
1107 1 0.2652736064271196 12.502071998815232 47.97685751035676 1.9119141404497377 -1 0 0
1133 1 0.2487764232594981 11.376836190342809 48.75525950977274 8.54146187715834 -1 0 0
1130 1 -0.1396783596565352 10.887275360188568 47.42202234823701 8.363302348078683 -1 0 0
1126 2 0.1277951895094911 11.350025004721262 45.441403839854345 7.63737677099276 -1 0 0
1273 2 0.1361288582631366 6.058514115780135 49.73426106441916 7.496140891359302 0 0 0
1275 1 -0.1612733958270878 5.419533448687577 49.73880220384754 8.388810127151473 0 0 0
1248 2 0.1193191662774462 7.484153723682922 51.37759812765432 4.108652917921701 0 0 0
1243 2 0.1605570638006153 2.9226862331212122 54.14611300535081 2.6984036296141807 0 0 0
1262 1 -0.008817407642224937 5.257771539032515 49.860704801946824 3.7071725257279926 0 0 0
1268 1 -0.1727749915694082 4.415772650170622 50.31663497847211 6.018808109055499 0 0 0
1256 1 -0.3129559957422394 7.508882455762887 50.59939698684941 3.288614434885976 0 0 0
1250 1 -0.1474983984000707 6.428166744000157 54.29578735280521 2.3251051542644037 0 0 0
1259 1 0.01818828304812967 6.059557089648803 50.5178783775798 2.6239919724374903 0 0 0
1266 1 -0.1126058212415151 5.024313937898715 50.7718517364367 4.8630344838788115 0 0 0
1270 2 0.136443830372504 4.228865555489005 50.98567971071881 6.834182813864779 0 0 0
1252 1 -0.007516770995015233 5.630638607585232 51.95950725717692 2.476514805221335 0 0 0
1264 2 0.1263552029673082 5.294668762068874 51.86601841822963 4.8158019082829 0 0 0
1254 1 -0.1193963399011298 6.70716055029482 52.93503267770997 2.3118819207874273 0 0 0
1258 2 0.1119008625018566 7.726033474234531 52.589246444625154 2.185146620240522 0 0 0
1245 1 0.2351278015213079 5.0314183366398115 54.71855264717122 2.3565429848405675 0 0 0
1260 2 0.1332851323066808 7.7294051088371 49.661156192198646 3.8338433156315745 0 0 0
1247 2 0.1334202849744864 3.4222323877866487 51.65854820356463 2.7370950446877185 0 0 0
1244 1 -0.1345240114055547 3.9441797446737445 53.7941072649447 2.563981347444611 0 0 0
1249 1 -0.1068476945285405 4.248780980889341 52.41752476450742 2.6021557361137377 0 0 0
1396 2 0.1129094215534382 1.3995623536604618 54.19517617627284 7.707937197116966 0 0 0
1389 2 0.145224548607168 1.0614409605989652 54.98843622477074 5.319316852617302 0 0 0
1261 2 0.1166789979891444 8.284872232522222 50.7614544551116 2.5084694633064015 0 0 0
1129 1 -0.1607556425816663 12.59733613865634 49.143348181624546 7.876894406886694 -1 0 0
1131 2 0.1277364289957814 12.962266656912467 50.19087109742963 7.881547951357425 -1 0 0
1390 1 -0.0119002977361649 14.059442789924743 53.938423581272545 8.133328795644186 -1 0 0
1387 1 -0.1230035715342995 12.743455523182952 53.88425848397783 7.448494127629426 -1 0 0
1385 2 0.1218723316394732 11.93160303378497 53.45029041997827 8.021882596562847 -1 0 0
1381 2 0.1296061565454751 11.533448287058848 54.675484364754965 5.8427552354944625 -1 0 0
1511 2 0.1542630259342486 14.185401643713742 54.29277678153483 2.91044563323162 -1 0 1
1392 1 -0.1070568929263884 15.198275776427247 54.35366094325204 7.332646668309963 -1 0 0
1388 1 -0.1432177231599988 15.012468793710433 54.72487401599378 5.968482405456981 -1 0 0
1383 1 0.2350182889917513 13.707935780362158 55.01179197045532 5.436263394083786 -1 0 0
1382 1 -0.12888443030683 12.561800807948105 54.58189052622892 6.211458763031696 -1 0 0
1251 2 0.1471102934702138 7.200820643818373 55.06837002940959 2.204856531237253 0 0 0
1679 1 -0.1114156036151962 0.8727068809504579 60.992888891768 8.067098010452279 0 0 0
1677 2 0.1371315849877335 0.9959524458677714 60.64482328109204 7.066665122877177 0 0 0
1379 3 -0.4804160888452658 4.725847248613542 56.04428149000539 2.0856059950877754 0 0 1
1649 2 0.1686438866472144 4.834822525401815 59.27757925707627 3.4377779391958088 0 0 1
1650 1 -0.1245397340222513 5.893320374903079 59.32443867327214 3.7594175066220843 0 0 1
1521 1 0.2493761053554468 5.994547604860669 58.30077237752647 7.10038056126708 0 0 0
1655 3 -0.4970402253988561 5.46645727212058 58.24443157648159 5.876887183578041 0 0 1
1520 1 -0.1708017761447435 7.037100577633525 59.229345325507616 7.514401361623864 0 0 0
1653 1 0.2646765453747982 6.34864505174219 58.61451666145516 4.91221140372835 0 0 1
1647 1 -0.05530288255243905 6.901440346530141 60.08288620671225 3.0455432386406738 0 0 1
1667 1 -0.294747769855396 4.0640342380052505 61.054009792223155 7.623823117078404 0 0 0
1527 2 0.1439403435140569 4.660424884499044 56.665255887270824 7.828409109266676 0 0 0
1526 1 -0.1373854241732684 5.452122519403533 57.40542393231644 8.105902003924076 0 0 0
1660 2 0.1530624301511397 4.153602094808426 60.541927280561495 8.612633785339483 0 0 0
1669 2 0.1569715652441555 3.7621138487450154 60.3045014012281 6.849232404507978 0 0 0
1519 2 0.1322641877881932 7.438664749703015 59.954118931383114 6.779613165300869 0 0 0
1525 1 -0.1177189125738701 7.548811088807424 59.19664987830143 8.821139894442341 0 0 0
1643 1 0.3817550855088779 6.78397224384691 60.95033062944509 1.7801256522305233 0 0 1
1654 1 -0.154500730392393 7.784499194098842 58.51950961262298 5.18541466375245 0 0 1
1645 1 0.3896824356331489 9.099182945368554 61.01219852170154 2.440454701957243 0 0 1
1648 1 -0.06484356192266588 8.338891770764555 60.17469222380713 3.4704159504503753 0 0 1
1651 1 -0.09153047017558469 8.770955027874248 59.318260106889525 4.57179239307641 0 0 1
1656 2 0.1364384769224811 8.160280629428886 57.86870346660761 5.958574946044378 0 0 1
1516 1 -0.123828183671185 12.834373990533567 57.56777928188147 3.063165632057613 -1 0 1
1512 1 -0.1479368464764255 13.847046870608944 55.236024279165875 2.533700352767495 -1 0 1
1515 1 0.2653026977077751 13.29411176701066 56.223144997840066 3.4728462838162084 -1 0 1
1517 3 -0.5030305977381446 13.41134578963373 56.17961825417373 4.776595015740561 -1 0 1
1652 2 0.1197618344173726 9.839646751758245 59.29314798306336 4.898982864758887 0 0 1
1518 2 0.1514457732531981 12.416252312441776 58.26786042650754 3.799274409325053 -1 0 1
1683 2 0.1500921347667008 13.701280343302676 60.047690493189776 8.515215562134383 -1 0 0
1513 1 -0.07305658230690523 13.032626125969069 58.0003253956044 1.765215310173898 -1 0 1
295 2 0.1135072736710432 7.830046731666427 26.29447897820485 9.408482492866073 0 0 0
298 2 0.1634944537177561 3.5951129035940377 24.39575200126448 9.7745856324261 0 0 0
304 2 0.1726545020054853 1.8693843580670508 26.160277925248472 9.986308029520082 0 0 0
300 1 -0.09559043798256391 3.8796160508115154 25.444390411914682 10.054211960289539 0 0 0
302 1 -0.1317252033578207 2.9143788881762087 26.427531503174507 10.121139520503185 0 0 0
296 1 -0.01432231975021109 5.3345596573537915 25.696923807342156 10.321447364463928 0 0 0
301 1 -0.1594471581756344 4.763686096361333 28.158393622549003 10.582558440141268 0 0 0
305 1 0.2644510935628014 3.3523781679965863 27.837165258595935 10.4103153598989 0 0 0
458 3 -0.4656347076672959 7.593982158448871 28.75260656323871 13.909836975161172 0 0 0
303 2 0.1386022289106696 5.123239745537842 29.16824156875988 10.666566429560158 0 0 0
306 3 -0.4989481574774594 2.358454863244596 28.678615349796956 10.637837710763126 0 0 0
299 1 -0.1015443408050444 5.663117616810296 27.09427330420118 10.649428185382193 0 0 0
308 1 0.2577854996729841 2.410625908743497 29.460590672211897 11.789412344936848 0 0 0
297 2 0.1295508687786907 6.696608874802159 27.338026820077516 10.904825574635277 0 0 0
293 1 0.01517241340866189 6.34080107172277 24.643029694309107 9.982392493760909 0 0 0
311 1 -0.1115447245106151 1.5173827639048159 29.26609119024966 12.895414009614457 0 0 0
66 1 -0.1690382954611086 0.7532631292415188 24.99305895173806 15.32872820815929 0 0 0
60 1 -0.04514698156606055 1.1080498409161454 24.286952588293488 13.052421863816848 0 0 0
310 2 0.1795866262711359 0.789213527667799 28.425838615169912 12.943025384745416 0 0 0
290 1 -0.3070979056335642 7.815398274988845 25.214562482392544 9.748457898629084 0 0 0
314 1 -0.03902744911506827 1.4397541526437725 30.250171876074138 13.963511360288761 0 0 0
459 2 0.1830945319588185 6.796623007820886 30.083289970850693 15.69158236244606 0 0 0
456 1 0.3946871744884095 8.091249061293652 29.653547650872934 13.305978412656597 0 0 0
282 2 0.1337013024034102 8.369392927328335 25.12896227697516 10.699005791211096 0 0 0
294 2 0.1486265153469182 8.38215025862739 24.665298634832563 8.954305007823073 0 0 0
175 2 0.1455488302438892 11.274997218275477 24.38823522295395 9.756563692441809 0 0 0
443 1 0.2409864954679798 12.845498986042383 28.296705718440784 8.963623792132282 0 0 0
450 1 -0.08135663157266396 9.850382711842723 27.9720611800286 12.188563021449134 0 0 0
451 2 0.1370776249171539 9.371319589180729 27.040367176912188 12.534396824754488 0 0 0
447 1 -0.1602065409612136 10.926349718471306 27.946738603803208 11.302813465541904 0 0 0
445 2 0.1393535244198282 11.38313725740499 27.00935984130452 10.963704835868466 0 0 0
317 3 -0.4374349426614262 14.32576200005319 29.809292717759813 15.332507343673123 -1 0 0
62 2 0.1452015108556343 14.284573717986664 25.738030729444667 13.684841942174948 -1 0 0
63 1 -0.07646819369820658 15.130383541676368 25.08531308022157 14.022731135777684 -1 0 0
54 3 -0.487298263008226 14.71379338908083 24.798000913054455 11.02974063073188 -1 0 0
453 1 -0.04025372025446955 9.324477943627073 29.30133717984933 12.485780291431158 0 0 0
446 1 0.2487851360796376 11.54023126129205 29.15929542285393 10.763488548456332 0 0 0
444 3 -0.4815386977376431 12.651143333160702 29.16477335004167 10.008703094241133 0 0 0
441 2 0.190858458432704 14.863504801579664 27.79357943174447 9.515914590901104 0 0 0
735 2 0.1967320386796604 6.747717254107736 33.39819673478324 9.91369441223776 0 0 0
315 1 -0.04804657767933867 2.468160259498081 31.321841959711893 13.965168681946098 0 0 0
309 1 -0.1425234031209895 3.2893048161144947 30.5983860822332 11.82868808468803 0 0 0
457 4 -0.4280512592634262 7.864473914203673 31.17745829380993 13.35906921368405 0 0 0
307 2 0.142235812451221 3.8968267829045513 30.84652378888941 10.97154316966749 0 0 0
313 2 0.1426196387452805 4.126766375175077 32.361415024430194 12.956865759251949 0 0 0
312 1 -0.08049768396744483 3.436046103386528 31.496356161901588 12.92609477436871 0 0 0
736 1 0.2054432612631925 7.677054144105938 35.34225093839884 9.796742306953862 0 0 0
737 1 -0.0864236989533884 6.739326787114572 34.379638643921965 10.312598828063948 0 0 0
740 1 -0.07749831083668557 5.704861708725393 34.809625705746015 11.186823849465927 0 0 0
743 1 -0.08862561817204791 5.642549551001794 36.18124618440264 11.592366714571575 0 0 0
741 2 0.1377752798055744 4.8622082896064915 34.11548439610497 11.455835527447103 0 0 0
320 3 -0.4428679200030711 2.958731403241199 33.1983145416988 15.522705021534854 0 0 0
318 1 0.393778519107949 2.2522838346894356 32.3289729946569 15.166481446772618 0 0 0
460 1 0.1790232631383041 7.096776831892471 31.837692383460677 14.457342864385343 0 0 0
461 1 -0.1109862957879107 6.6279083560920125 31.190947415655444 15.654677552176526 0 0 0
463 1 -0.1258401938268431 6.756151855269583 33.22795783431807 14.50107401804064 0 0 0
614 2 0.1826586140093919 2.3571718119964915 35.87309973224778 14.06216864744873 0 0 0
462 2 0.2102523294549539 6.916146468919963 33.76901980250661 13.537498049045237 0 0 0
319 4 -0.4292728426916766 0.9642817396223669 31.782536190794886 15.84078625199115 0 0 0
615 1 -0.05915039464883212 1.3491816721500411 36.32405580216335 14.122136256842165 0 0 0
606 3 -0.4350062766608641 1.3966594266149763 34.878122562496316 11.307148667063737 0 0 0
466 1 0.1656058531527974 6.2343324665171815 33.957900167147635 15.624793608772688 0 0 0
469 4 -0.3678642897144774 6.491339039078177 35.47317843146267 15.756989087923829 0 0 0
746 2 0.2075226455924737 4.795246062002036 36.54363084064387 12.212358283789667 0 0 0
734 3 -0.4591765277210095 8.697762743760755 32.592302838340665 9.106128730935684 0 0 0
454 1 0.3991675308931114 9.083344686968106 31.764902303846938 12.533391344145205 0 0 0
455 3 -0.3680405455517338 9.312855567225988 32.913500266335525 12.363563950977184 0 0 0
321 2 0.1632318483367853 13.931564541701315 33.742315013115075 14.70320085259209 -1 0 0
316 1 0.4030223815874335 15.226839207716724 30.53375576228847 15.075723550025886 -1 0 0
323 1 -0.1265738577237115 13.767404278802072 33.57277099976178 15.76396086046699 -1 0 0
452 1 -0.032337638982539 9.906632036384238 30.61919108765597 11.990742950534267 0 0 0
600 2 0.2088177942257012 15.301443809549873 33.64723753938538 9.291836224138347 -1 0 0
449 1 -0.1038193055423025 11.023428064621404 30.452560037930787 11.131586097434658 0 0 0
448 2 0.2033397088892965 11.536406856860243 31.31886089309718 10.733350879625686 0 0 0
609 1 0.3715927456866887 15.158327662827928 35.17076906062553 11.859592592625434 -1 0 0
612 1 -0.05841879242969193 15.1959174410884 36.15143545216293 13.00672371396776 -1 0 0
601 1 -0.09190188928797549 15.076609407687032 34.696469045247234 9.035959099360612 -1 0 0
604 1 0.1708765046158937 13.919921035456277 35.30878810279021 9.679637495452287 -1 0 0
607 4 -0.3912223608270748 13.775732168100948 35.16788737200629 11.175180501587462 -1 0 0
611 1 0.3645230055687596 12.941279486648526 36.087310800242726 12.15322361369933 -1 0 0
327 2 0.147964176427437 12.126087809349864 34.88652943026094 15.838558040930938 -1 0 0
468 3 -0.3672877886718617 8.662723759131337 35.66843989601219 14.722858736891858 0 0 0
610 3 -0.3644796785603466 11.765997360603796 36.30437709267863 12.214324062200872 -1 0 0
605 1 -0.1113442222994343 13.59012164981355 36.481547202935246 8.972832489937977 -1 0 0
471 1 0.3777539664741122 8.025474685115432 35.741922902845076 15.720934179645885 0 0 0
841 2 0.1800350525613512 4.894767922141674 38.47379903057413 8.866858854220082 0 0 0
852 1 -0.1027668739841062 4.477639988312121 41.97141871835104 9.404219614842415 0 0 0
850 2 0.136716748694672 5.43668199412557 42.158190805915424 9.885350195854858 0 0 0
739 1 -0.1280576143016031 7.706135583131385 36.62554503372996 10.427961641988885 0 0 0
857 1 0.2594677022177552 2.0851320655265546 42.51687649209617 9.480560493909053 0 0 0
742 1 0.1927330703547698 6.686243283193315 37.10558614600899 11.316169341663118 0 0 0
832 2 0.1660835442885466 5.8529038747171755 39.53900760142821 9.815191362630562 0 0 0
745 4 -0.4217117275054671 6.833957555910642 38.40543142542183 12.039657188036754 0 0 0
750 1 -0.05135876349964101 7.7640197978318275 40.44241842860792 13.198814833831186 0 0 0
749 1 0.4147151979084915 5.831158836171156 38.93046685430632 13.057464433116834 0 0 0
748 3 -0.4595909160542195 4.726670721661328 38.551571306240945 13.16801003536966 0 0 0
751 1 -0.04952961735834695 6.412501746884413 40.13409526679731 13.831930414078956 0 0 0
859 2 0.1556849660468215 1.6502780287105132 41.67180838777698 12.00244822123096 0 0 0
754 1 -0.1247551236375162 5.883291828950113 40.90831124119509 14.888788725763453 0 0 0
755 2 0.1804174335275979 4.934533987959187 40.57366107407129 15.346378099849103 0 0 0
757 1 0.2550251191061822 6.604362583985378 42.10600864578607 15.31177252507273 0 0 0
618 1 -0.1481767273013124 0.974189517560454 36.994584546973485 15.295303893710132 0 0 0
854 1 -0.1710892309816949 3.4013561942108024 42.66387832503628 10.011042728736864 0 0 0
756 1 -0.1540096527927129 7.92451346877686 42.34741919993794 14.781292955007586 0 0 0
861 1 -0.1582562372670775 1.4330901643852236 42.68823443841845 12.27358577572268 0 0 0
865 2 0.1561445326290094 1.720233306781723 42.33580697973534 14.431159481508395 0 0 0
613 1 -0.04732146448860686 13.810062460844588 36.6958703125966 13.234351016168143 -1 0 0
747 1 0.3857820882217015 8.084528032971697 39.43253554886715 12.118534278561766 0 0 0
738 2 0.2294432553583067 8.544346334465033 37.2540549277883 10.200588868296315 0 0 0
753 1 -0.07575142300493021 8.485868004093783 41.561485187058345 13.738747435791463 0 0 0
744 3 -0.4175181592455578 9.054600816334998 39.45112563069482 11.418441387807277 0 0 0
608 2 0.1727366548278379 12.597232461809302 36.96442874780082 9.263997902207638 -1 0 0
752 2 0.1530557564020218 9.489266942934075 41.808901713483976 13.32650133479848 0 0 0
616 1 -0.1268268861576612 13.484914158222763 37.46177198316552 14.403644866459143 -1 0 0
617 2 0.1943802286234653 12.480986374770001 37.78758722482449 14.548765463231984 -1 0 0
619 1 0.241054022530873 14.41678973834227 37.54141288138295 15.485118189385688 -1 0 0
858 3 -0.5055920608343683 1.0181657738898202 43.22221516414912 9.851989304226048 0 0 0
864 1 -0.06718662432046657 1.467825067270804 43.07966817316076 13.636312756608637 0 0 0
870 1 0.3797337630556273 1.5047718446568732 45.442103453848624 15.142064672099888 0 0 0
867 1 -0.04857574240469007 1.273172966653584 44.47818230654454 13.946641434996518 0 0 0
860 1 0.2377082329561932 1.093776301441622 43.58807349683477 11.188430309817225 0 0 0
856 2 0.144678111126757 3.6315552938278817 43.269268530431205 10.851004232664925 0 0 0
988 2 0.1564112252912052 5.543489412012829 47.77697808875824 12.654482438804873 0 0 0